,mp_id,Formula,Composition,IPF,Density,Elastic_Tensor,E_above_Hull,G_VRH,K_VRH,Elastic_Anisotropy,poisson_ratio,Y_Modulus
91,mp-12317,SrCN2,"{'Sr': 1.0, 'C': 1.0, 'N': 2.0}",0.168247942,3.01144999,"{'G_Reuss': 13.0, 'G_VRH': 17.0, 'G_Voigt': 20.0, 'G_Voigt_Reuss_Hill': 17.0, 'K_Reuss': 55.0, 'K_VRH': 57.0, 'K_Voigt': 60.0, 'K_Voigt_Reuss_Hill': 57.0, 'elastic_anisotropy': 3.03, 'elastic_tensor': [[81.0, 31.0, 43.0, -4.0, 0.0, 0.0], [31.0, 81.0, 43.0, 4.0, 0.0, 0.0], [43.0, 43.0, 139.0, 0.0, 0.0, 0.0], [-4.0, 4.0, 0.0, 8.0, 0.0, 0.0], [0.0, 0.0, 0.0, 0.0, 8.0, -4.0], [0.0, 0.0, 0.0, 0.0, -4.0, 25.0]], 'homogeneous_poisson': 0.37, 'poisson_ratio': 0.37, 'universal_anisotropy': 3.03, 'elastic_tensor_original': [[81.60936510031301, 30.939719214475524, 43.37970444299366, 4.587274464891407, 0.0, 0.0], [30.99547074288809, 81.44387339783881, 43.923349125647256, -4.619029694734956, 0.0, 0.0], [42.98590880653341, 42.98590354703315, 139.04731254982914, 0.0, 0.0, 0.0], [3.2182400774442463, -3.2307899690178035, 0.10656052154352075, 7.605866101160359, 0.0, 0.0], [0.08050072299281766, -0.06602144129762046, -0.01621238660655802, 0.12052291885523901, 8.019948735825254, 3.3885876695358657], [-7.131705409737486e-05, -8.473707119613956e-05, 0.0001851303462348593, -6.733352473441287e-06, 3.063936103375048, 24.794645111922666]], 'compliance_tensor': [[16.5, -4.8, -3.6, 9.8, 0.0, 0.0], [-4.8, 16.5, -3.6, -9.8, 0.0, 0.0], [-3.6, -3.6, 9.5, 0.0, -0.0, -0.0], [9.8, -9.8, 0.0, 136.9, 0.0, 0.0], [0.0, 0.0, -0.0, 0.0, 136.9, 19.5], [0.0, 0.0, -0.0, 0.0, 19.5, 42.7]], 'warnings': [], 'nsites': 4}",0,17,57,3.03,0.37,46.58
92,mp-13263,Ce2Mo2C3,"{'Ce': 2.0, 'Mo': 2.0, 'C': 3.0}",0.138123918,7.878984335,"{'G_Reuss': 78.0, 'G_VRH': 81.0, 'G_Voigt': 83.0, 'G_Voigt_Reuss_Hill': 81.0, 'K_Reuss': 133.0, 'K_VRH': 137.0, 'K_Voigt': 141.0, 'K_Voigt_Reuss_Hill': 137.0, 'elastic_anisotropy': 0.36, 'elastic_tensor': [[299.0, 95.0, 107.0, 0.0, 21.0, 0.0], [95.0, 209.0, 65.0, 0.0, -20.0, 0.0], [107.0, 65.0, 222.0, 0.0, -6.0, 0.0], [0.0, 0.0, 0.0, 97.0, 0.0, -9.0], [21.0, -20.0, -6.0, 0.0, 78.0, 0.0], [0.0, 0.0, 0.0, -9.0, 0.0, 85.0]], 'homogeneous_poisson': 0.25, 'poisson_ratio': 0.25, 'universal_anisotropy': 0.36, 'elastic_tensor_original': [[299.28044894853855, 95.14191630747773, 102.40402079738023, 0.0, 22.84742471326464, 0.0], [94.49423822279364, 208.96881255082369, 65.69938920388051, 1.5999880767848356e-06, -17.730924068001144, -8.59993591271849e-06], [112.5204572380374, 65.25222021529831, 222.24134123276815, 0.0, 0.2379528168453306, 0.0], [0.0, 0.0, 0.0, 97.21926497530298, 0.0, -7.694957259983137], [19.85583708283747, -22.82805603758439, -13.207452984058353, 0.0, 78.0436735358916, 0.0], [0.0, 0.0, 0.0, -10.707839361901216, 0.0, 85.17957385585419]], 'compliance_tensor': [[4.7, -1.7, -1.8, 0.0, -1.9, 0.0], [-1.7, 6.0, -0.9, -0.0, 2.0, 0.0], [-1.8, -0.9, 5.7, -0.0, 0.7, -0.0], [0.0, -0.0, -0.0, 10.4, 0.0, 1.1], [-1.9, 2.0, 0.7, 0.0, 13.9, 0.0], [0.0, 0.0, -0.0, 1.1, 0.0, 11.9]], 'warnings': ['Contains a rare earth element'], 'nsites': 7}",0,81,137,0.36,0.25,202.5
93,mp-16297,Sc3SnC,"{'Sc': 3.0, 'Sn': 1.0, 'C': 1.0}",0.120194416,4.725012085,"{'G_Reuss': 81.0, 'G_VRH': 82.0, 'G_Voigt': 82.0, 'G_Voigt_Reuss_Hill': 82.0, 'K_Reuss': 102.0, 'K_VRH': 102.0, 'K_Voigt': 102.0, 'K_Voigt_Reuss_Hill': 102.0, 'elastic_anisotropy': 0.04, 'elastic_tensor': [[223.0, 42.0, 42.0, 0.0, 0.0, 0.0], [42.0, 223.0, 42.0, 0.0, 0.0, 0.0], [42.0, 42.0, 223.0, 0.0, 0.0, 0.0], [0.0, 0.0, 0.0, 76.0, 0.0, 0.0], [0.0, 0.0, 0.0, 0.0, 76.0, 0.0], [0.0, 0.0, 0.0, 0.0, 0.0, 76.0]], 'homogeneous_poisson': 0.18, 'poisson_ratio': 0.18, 'universal_anisotropy': 0.04, 'elastic_tensor_original': [[223.15813829039, 41.52280509273626, 41.52280509273626, 0.0, 0.0, 0.0], [41.52563026228686, 223.15894967322322, 41.52563026228686, 0.0, 0.0, 0.0], [41.53380508937907, 41.53380508937907, 223.16649664711932, 0.0, 0.0, 0.0], [-0.00027457653751110595, -0.00021120323398815112, -0.0002862531986856461, 75.85735768481183, 0.0, 0.0], [-9.583328825534067e-05, -0.00011954661043422622, 2.0929990154728136e-05, 0.0, 75.8576597613364, 0.0], [0.000583969725310761, 0.0007726096365790967, 0.0005938197206785347, 0.0, 0.0, 75.8576616413355]], 'compliance_tensor': [[4.8, -0.7, -0.7, 0.0, 0.0, -0.0], [-0.7, 4.8, -0.7, -0.0, 0.0, 0.0], [-0.7, -0.7, 4.8, 0.0, -0.0, 0.0], [0.0, -0.0, 0.0, 13.2, -0.0, -0.0], [0.0, 0.0, -0.0, -0.0, 13.2, 0.0], [-0.0, 0.0, 0.0, -0.0, 0.0, 13.2]], 'warnings': [], 'nsites': 5}",0,82,102,0.04,0.18,193.52
94,mp-19821,Cr2GeC,"{'Cr': 2.0, 'Ge': 1.0, 'C': 1.0}",0.199467882,6.955160667,"{'G_Reuss': 81.0, 'G_VRH': 82.0, 'G_Voigt': 82.0, 'G_Voigt_Reuss_Hill': 82.0, 'K_Reuss': 202.0, 'K_VRH': 202.0, 'K_Voigt': 202.0, 'K_Voigt_Reuss_Hill': 202.0, 'elastic_anisotropy': 0.08, 'elastic_tensor': [[315.0, 150.0, 136.0, 0.0, 0.0, 0.0], [150.0, 315.0, 136.0, 0.0, 0.0, 0.0], [136.0, 136.0, 345.0, 0.0, 0.0, 0.0], [0.0, 0.0, 0.0, 72.0, 0.0, 0.0], [0.0, 0.0, 0.0, 0.0, 72.0, 0.0], [0.0, 0.0, 0.0, 0.0, 0.0, 82.0]], 'homogeneous_poisson': 0.32, 'poisson_ratio': 0.32, 'universal_anisotropy': 0.08, 'elastic_tensor_original': [[315.9550443545782, 150.48600962717418, 138.12992947207124, 0.0, 0.0, 0.0], [150.27844829703346, 314.9875618346685, 137.64587139930583, 0.0, 0.0, 0.0], [134.48490755290715, 134.48491019278256, 344.65385310530706, 0.0, 0.0, 0.0], [-0.08154691081418793, -0.0584878228781483, -0.06968139113742917, 73.13001644860749, 0.0, 0.0], [-0.04786657599575791, -0.07086308801971182, -0.06766679153573472, 0.0, 71.82226211215992, 0.0], [-0.016382311903337703, 0.05436852736641472, 0.040819379017509, 0.0, 0.0, 82.42943385724816]], 'compliance_tensor': [[4.4, -1.6, -1.1, 0.0, 0.0, 0.0], [-1.6, 4.4, -1.1, 0.0, 0.0, 0.0], [-1.1, -1.1, 3.8, -0.0, -0.0, -0.0], [0.0, 0.0, -0.0, 13.8, 0.0, 0.0], [0.0, 0.0, -0.0, 0.0, 13.8, 0.0], [0.0, 0.0, -0.0, 0.0, 0.0, 12.1]], 'warnings': [], 'nsites': 8}",0.142029062,82,202,0.08,0.32,216.48
95,mp-20753,CeCoC2,"{'Ce': 1.0, 'Co': 1.0, 'C': 2.0}",0.146087973,7.309879362,"{'G_Reuss': 74.0, 'G_VRH': 76.0, 'G_Voigt': 79.0, 'G_Voigt_Reuss_Hill': 76.0, 'K_Reuss': 140.0, 'K_VRH': 144.0, 'K_Voigt': 148.0, 'K_Voigt_Reuss_Hill': 144.0, 'elastic_anisotropy': 0.39, 'elastic_tensor': [[363.0, 87.0, 91.0, 0.0, -11.0, 0.0], [87.0, 215.0, 82.0, 0.0, -1.0, 0.0], [91.0, 82.0, 233.0, 0.0, -11.0, 0.0], [0.0, 0.0, 0.0, 84.0, 0.0, -7.0], [-11.0, -1.0, -11.0, 0.0, 64.0, 0.0], [0.0, 0.0, 0.0, -7.0, 0.0, 61.0]], 'homogeneous_poisson': 0.27, 'poisson_ratio': 0.27, 'universal_anisotropy': 0.39, 'elastic_tensor_original': [[362.92187600603046, 103.3622105738047, 103.62467924743618, -1.960016978621584e-05, -6.868999302617116, 0.0], [69.89126984348906, 215.09733662873865, 75.85079374850103, -4.060053074455007e-05, 3.2486140670362613, 0.0], [77.83576464077626, 88.65355749329439, 232.72835078333304, -1.6799787323661913e-05, -5.1284024771627, 0.0], [0.0, -3.228214911926774e-07, -3.178076030467613e-05, 83.92014668836968, 1.3565171671016117e-06, -7.16402625675555], [-14.665519384913377, -5.550835022442311, -17.47153750089726, 1.100014550199119e-06, 64.25427100915553, 0.0], [0.0, 6.824496671570892e-08, 2.5339383498413312e-06, -6.691107567647341, -1.1574012570058021e-05, 61.124583432618]], 'compliance_tensor': [[3.2, -0.9, -0.9, -0.0, 0.4, -0.0], [-0.9, 5.7, -1.6, 0.0, -0.3, -0.0], [-0.9, -1.6, 5.3, 0.0, 0.7, 0.0], [-0.0, 0.0, 0.0, 12.0, 0.0, 1.4], [0.4, -0.3, 0.7, 0.0, 15.7, 0.0], [-0.0, -0.0, 0.0, 1.4, 0.0, 16.5]], 'warnings': ['Contains a rare earth element'], 'nsites': 8}",0,76,144,0.39,0.27,193.04
96,mp-20906,HoCoC,"{'Ho': 1.0, 'Co': 1.0, 'C': 1.0}",0.150535312,8.749995465,"{'G_Reuss': 50.0, 'G_VRH': 57.0, 'G_Voigt': 65.0, 'G_Voigt_Reuss_Hill': 57.0, 'K_Reuss': 134.0, 'K_VRH': 137.0, 'K_Voigt': 141.0, 'K_Voigt_Reuss_Hill': 137.0, 'elastic_anisotropy': 1.61, 'elastic_tensor': [[327.0, 57.0, 77.0, 0.0, 0.0, 0.0], [57.0, 327.0, 77.0, 0.0, 0.0, 0.0], [77.0, 77.0, 188.0, 0.0, 0.0, 0.0], [0.0, 0.0, 0.0, 42.0, 0.0, 0.0], [0.0, 0.0, 0.0, 0.0, 42.0, 0.0], [0.0, 0.0, 0.0, 0.0, 0.0, 32.0]], 'homogeneous_poisson': 0.32, 'poisson_ratio': 0.32, 'universal_anisotropy': 1.61, 'elastic_tensor_original': [[326.8453682511025, 57.45021556422758, 74.38296617832816, 0.0, 0.0, 0.0], [57.45021556422758, 326.8453682511025, 74.38296617832816, 0.0, 0.0, 0.0], [79.86545836191988, 79.86545836191988, 187.74500611872864, 0.0, 0.0, 0.0], [0.0, 0.0, 0.0, 42.05681537349657, 0.0, 0.0], [0.0, 0.0, 0.0, 0.0, 42.05681537349657, 0.0], [0.31564238133831846, -0.31564238133831846, 0.0, 0.0, 0.0, 31.562402248481252]], 'compliance_tensor': [[3.4, -0.3, -1.3, 0.0, 0.0, 0.0], [-0.3, 3.4, -1.3, 0.0, 0.0, -0.0], [-1.3, -1.3, 6.4, 0.0, 0.0, 0.0], [0.0, 0.0, 0.0, 23.8, 0.0, 0.0], [0.0, 0.0, 0.0, 0.0, 23.8, 0.0], [0.0, -0.0, 0.0, 0.0, 0.0, 31.7]], 'warnings': ['Contains a rare earth element'], 'nsites': 6}",0,57,137,1.61,0.32,150.48
97,mp-21017,Y3PbC,"{'Y': 3.0, 'Pb': 1.0, 'C': 1.0}",0.169376002,6.774895906,"{'G_Reuss': 58.0, 'G_VRH': 58.0, 'G_Voigt': 59.0, 'G_Voigt_Reuss_Hill': 58.0, 'K_Reuss': 76.0, 'K_VRH': 76.0, 'K_Voigt': 76.0, 'K_Voigt_Reuss_Hill': 76.0, 'elastic_anisotropy': 0.06, 'elastic_tensor': [[165.0, 32.0, 32.0, 0.0, 0.0, 0.0], [32.0, 165.0, 32.0, 0.0, 0.0, 0.0], [32.0, 32.0, 165.0, 0.0, 0.0, 0.0], [0.0, 0.0, 0.0, 53.0, 0.0, 0.0], [0.0, 0.0, 0.0, 0.0, 53.0, 0.0], [0.0, 0.0, 0.0, 0.0, 0.0, 53.0]], 'homogeneous_poisson': 0.19, 'poisson_ratio': 0.19, 'universal_anisotropy': 0.06, 'elastic_tensor_original': [[164.94862467445432, 31.63673620419816, 31.63673620419816, 0.0, 0.0, 0.0], [31.638282859606434, 164.94893817606143, 31.638282859606434, 0.0, 0.0, 0.0], [31.64032315107573, 31.64032315107573, 164.950301749968, 0.0, 0.0, 0.0], [0.00013929658862044648, 0.0003620329824230473, 0.00026846294080760876, 53.31803320580989, 0.0, 0.0], [0.00020560677036637578, 7.092338004933036e-05, 9.792686570104393e-05, 0.0, 53.318191455686296, 0.0], [-0.00028757309132008567, -8.693669092725563e-05, -0.0001707932941225597, 0.0, 0.0, 53.31805785261027]], 'compliance_tensor': [[6.5, -1.0, -1.0, 0.0, -0.0, -0.0], [-1.0, 6.5, -1.0, -0.0, 0.0, -0.0], [-1.0, -1.0, 6.5, -0.0, -0.0, 0.0], [0.0, -0.0, -0.0, 18.8, 0.0, -0.0], [-0.0, 0.0, -0.0, 0.0, 18.8, -0.0], [-0.0, -0.0, 0.0, -0.0, -0.0, 18.8]], 'warnings': [], 'nsites': 5}",0,58,76,0.06,0.19,138.04
98,mp-21313,Mn3GaC,"{'Mn': 3.0, 'Ga': 1.0, 'C': 1.0}",0.094952057,7.230363272,"{'G_Reuss': 110.0, 'G_VRH': 115.0, 'G_Voigt': 121.0, 'G_Voigt_Reuss_Hill': 115.0, 'K_Reuss': 208.0, 'K_VRH': 208.0, 'K_Voigt': 208.0, 'K_Voigt_Reuss_Hill': 208.0, 'elastic_anisotropy': 0.51, 'elastic_tensor': [[434.0, 96.0, 96.0, 0.0, 0.0, 0.0], [96.0, 434.0, 96.0, 0.0, 0.0, 0.0], [96.0, 96.0, 434.0, 0.0, 0.0, 0.0], [0.0, 0.0, 0.0, 89.0, 0.0, 0.0], [0.0, 0.0, 0.0, 0.0, 89.0, 0.0], [0.0, 0.0, 0.0, 0.0, 0.0, 89.0]], 'homogeneous_poisson': 0.27, 'poisson_ratio': 0.27, 'universal_anisotropy': 0.51, 'elastic_tensor_original': [[433.86188615382923, 95.68864278404955, 95.68864278404955, 0.0, 0.0, 0.0], [95.68765065285828, 433.8605964422895, 95.68765065285828, 0.0, 0.0, 0.0], [95.69004627412123, 95.69004627412123, 433.86477123910873, 0.0, 0.0, 0.0], [6.53371868914683e-05, 0.00033415397100199795, 0.0001387269641413127, 88.88522733861609, 0.0, 0.0], [8.833113313176547e-06, -0.00015706082057561916, -0.00019395451196682324, 0.0, 88.88470250063223, 0.0], [0.0001493567715880339, -0.00017400379580543202, -0.0002205640147443458, 0.0, 0.0, 88.88447338380699]], 'compliance_tensor': [[2.5, -0.5, -0.5, 0.0, 0.0, 0.0], [-0.5, 2.5, -0.5, 0.0, 0.0, 0.0], [-0.5, -0.5, 2.5, 0.0, 0.0, -0.0], [0.0, 0.0, 0.0, 11.3, 0.0, 0.0], [0.0, 0.0, 0.0, 0.0, 11.3, 0.0], [0.0, 0.0, -0.0, 0.0, 0.0, 11.3]], 'warnings': [], 'nsites': 10}",0,115,208,0.51,0.27,292.1
99,mp-22120,YRh3C,"{'Y': 1.0, 'Rh': 3.0, 'C': 1.0}",0.136321258,9.25327076,"{'G_Reuss': 79.0, 'G_VRH': 80.0, 'G_Voigt': 80.0, 'G_Voigt_Reuss_Hill': 80.0, 'K_Reuss': 197.0, 'K_VRH': 197.0, 'K_Voigt': 197.0, 'K_Voigt_Reuss_Hill': 197.0, 'elastic_anisotropy': 0.0, 'elastic_tensor': [[306.0, 142.0, 142.0, 0.0, 0.0, 0.0], [142.0, 306.0, 142.0, 0.0, 0.0, 0.0], [142.0, 142.0, 306.0, 0.0, 0.0, 0.0], [0.0, 0.0, 0.0, 78.0, 0.0, 0.0], [0.0, 0.0, 0.0, 0.0, 78.0, 0.0], [0.0, 0.0, 0.0, 0.0, 0.0, 78.0]], 'homogeneous_poisson': 0.32, 'poisson_ratio': 0.32, 'universal_anisotropy': 0.0, 'elastic_tensor_original': [[305.86130692146406, 142.03196692454688, 142.03196692454688, 0.0, 0.0, 0.0], [142.03012649707605, 305.86082226876, 142.03012649707605, 0.0, 0.0, 0.0], [142.0304318328271, 142.0304318328271, 305.8610728691471, 0.0, 0.0, 0.0], [0.00027678656534064106, -0.00013550328372695264, -0.00028283989645846205, 77.95286147309886, 0.0, 0.0], [-9.31266325736016e-05, -0.0005130298121908603, -0.00014055994854298914, 0.0, 77.95243401325534, 0.0], [-0.0004055931848521728, -0.0004963964849445809, -0.0005158298111665393, 0.0, 0.0, 77.95257939986878]], 'compliance_tensor': [[4.6, -1.5, -1.5, -0.0, 0.0, 0.0], [-1.5, 4.6, -1.5, 0.0, -0.0, 0.0], [-1.5, -1.5, 4.6, 0.0, 0.0, -0.0], [-0.0, 0.0, 0.0, 12.8, 0.0, -0.0], [0.0, -0.0, 0.0, 0.0, 12.8, 0.0], [0.0, 0.0, -0.0, -0.0, 0.0, 12.8]], 'warnings': [], 'nsites': 5}",0,80,197,0,0.32,211.2
100,mp-22156,Hf2InC,"{'Hf': 2.0, 'In': 1.0, 'C': 1.0}",0.122574675,11.27081086,"{'G_Reuss': 91.0, 'G_VRH': 92.0, 'G_Voigt': 93.0, 'G_Voigt_Reuss_Hill': 92.0, 'K_Reuss': 129.0, 'K_VRH': 130.0, 'K_Voigt': 130.0, 'K_Voigt_Reuss_Hill': 130.0, 'elastic_anisotropy': 0.1, 'elastic_tensor': [[275.0, 62.0, 63.0, 0.0, 0.0, 0.0], [62.0, 275.0, 63.0, 0.0, 0.0, 0.0], [63.0, 63.0, 240.0, 0.0, 0.0, 0.0], [0.0, 0.0, 0.0, 79.0, 0.0, 0.0], [0.0, 0.0, 0.0, 0.0, 79.0, 0.0], [0.0, 0.0, 0.0, 0.0, 0.0, 106.0]], 'homogeneous_poisson': 0.21, 'poisson_ratio': 0.21, 'universal_anisotropy': 0.1, 'elastic_tensor_original': [[275.6558274202658, 62.469854508323124, 63.327375232925455, 0.0, 0.0, 0.0], [60.676665907770726, 275.5820591101575, 61.623133431932715, 0.0, 0.0, 0.0], [64.25437262591674, 64.2544180806717, 240.0004922144524, 0.0, 0.0, 0.0], [-0.061069558018588724, 0.0032329924151717915, -0.05612868174910429, 78.74686100292351, 0.0, 0.0], [-0.00030356628943581046, -0.00023212304488199305, -0.0003993528370732468, 0.0, 79.10905852398867, 0.0], [0.0008368856263365367, 0.000472606079171614, 0.0018028677589106091, 0.0, 0.0, 105.17405835427803]], 'compliance_tensor': [[4.0, -0.7, -0.9, -0.0, -0.0, 0.0], [-0.7, 4.0, -0.9, -0.0, 0.0, 0.0], [-0.9, -0.9, 4.6, 0.0, 0.0, -0.0], [-0.0, -0.0, 0.0, 12.7, 0.0, 0.0], [-0.0, 0.0, 0.0, 0.0, 12.7, 0.0], [0.0, 0.0, -0.0, -0.0, -0.0, 9.4]], 'warnings': [], 'nsites': 8}",0,92,130,0.1,0.21,222.64
101,mp-23062,YCI,"{'Y': 1.0, 'C': 1.0, 'I': 1.0}",0.174516071,4.900237915,"{'G_Reuss': 0.0, 'G_VRH': 7.0, 'G_Voigt': 13.0, 'G_Voigt_Reuss_Hill': 7.0, 'K_Reuss': 7.0, 'K_VRH': 14.0, 'K_Voigt': 21.0, 'K_Voigt_Reuss_Hill': 14.0, 'elastic_anisotropy': 320.71, 'elastic_tensor': [[9.0, 2.0, 1.0, 0.0, 0.0, 0.0], [2.0, 86.0, 9.0, 0.0, -1.0, 0.0], [1.0, 9.0, 67.0, 0.0, 3.0, 0.0], [0.0, 0.0, 0.0, 13.0, 0.0, -0.0], [0.0, -1.0, 3.0, 0.0, 1.0, 0.0], [0.0, 0.0, 0.0, -0.0, 0.0, 0.0]], 'homogeneous_poisson': 0.3, 'poisson_ratio': 0.3, 'universal_anisotropy': 320.71, 'elastic_tensor_original': [[85.80116582140407, 9.3174536058263, 0.7476071202704635, -2.2441393285000824, 0.0, 0.0], [9.314692755330922, 67.26330128710495, -3.4811333910235946, 6.409622795934106, 0.0, 0.0], [2.591644232727387, 4.9978023405925756, 8.603311563714055, 1.1099877564395837, 0.0, 0.0], [-0.18412595821752697, 0.19441176869414686, -0.3304675117802586, 1.1715153045101818, 0.0, 0.0], [0.2746428367417339, 0.31120445338702896, 0.6335261461822643, -0.12998272436073144, 0.051026791216271114, 0.11825832128741469], [0.0368985366446982, 0.09426772585691413, 0.015250346879335854, 0.027644805803731937, -0.8082749712744373, 13.354902057645905]], 'compliance_tensor': [[118.9, -3.1, 1.4, 0.0, -47.4, 0.0], [-3.1, 12.3, -2.7, 0.0, 21.5, 0.0], [1.4, -2.7, 17.8, 0.0, -52.7, 0.0], [0.0, 0.0, 0.0, 91.9, 0.0, 635.1], [-47.4, 21.5, -52.7, 0.0, 1042.6, 0.0], [0.0, 0.0, 0.0, 635.1, 0.0, 23744.0]], 'warnings': ['c11 and c23 are within 5% or c23 is greater than c11', 'One or more K, G below 2 GPa'], 'nsites': 6}",0,7,14,320.71,0.3,18.2
102,mp-29826,ZnCN2,"{'Zn': 1.0, 'C': 1.0, 'N': 2.0}",0.092290325,3.1917088,"{'G_Reuss': 22.0, 'G_VRH': 24.0, 'G_Voigt': 25.0, 'G_Voigt_Reuss_Hill': 24.0, 'K_Reuss': 58.0, 'K_VRH': 73.0, 'K_Voigt': 87.0, 'K_Voigt_Reuss_Hill': 73.0, 'elastic_anisotropy': 1.3, 'elastic_tensor': [[213.0, 80.0, 80.0, 0.0, 0.0, 0.0], [80.0, 76.0, 47.0, 0.0, 0.0, 0.0], [80.0, 47.0, 76.0, 0.0, 0.0, 0.0], [0.0, 0.0, 0.0, 28.0, 0.0, 0.0], [0.0, 0.0, 0.0, 0.0, 24.0, 0.0], [0.0, 0.0, 0.0, 0.0, 0.0, 24.0]], 'homogeneous_poisson': 0.35, 'poisson_ratio': 0.35, 'universal_anisotropy': 1.3, 'elastic_tensor_original': [[76.31461230327176, 46.730080396437536, 80.48473335095824, 0.0, 0.0, 0.0], [46.730100277330415, 76.31465369928861, 80.48477330440555, 0.0, 0.0, 0.0], [80.37544665540918, 80.37544665540918, 213.0399496368072, 0.0, 0.0, 0.0], [-0.07775656345239118, -0.0862856887548432, -0.20032040138167131, 23.553275492631002, 0.0, 0.0], [-0.08298292519800342, -0.059738670417736964, -0.20326625860790065, 0.0, 23.55329355594733, 0.0], [0.018318286722393405, 0.007722539663902227, 0.03601610400742571, 0.0, 0.0, 27.684947868747322]], 'compliance_tensor': [[9.3, -6.1, -6.1, 0.0, 0.0, -0.0], [-6.1, 24.9, -8.9, 0.0, 0.0, 0.0], [-6.1, -8.9, 24.9, -0.0, 0.0, -0.0], [0.0, 0.0, -0.0, 36.1, 0.0, 0.0], [0.0, 0.0, 0.0, 0.0, 42.5, 0.0], [-0.0, 0.0, -0.0, 0.0, 0.0, 42.5]], 'warnings': [], 'nsites': 16}",0,24,73,1.3,0.35,64.8
103,mp-3732,Ti2CS,"{'Ti': 2.0, 'C': 1.0, 'S': 1.0}",0.162565401,4.634878109,"{'G_Reuss': 133.0, 'G_VRH': 134.0, 'G_Voigt': 136.0, 'G_Voigt_Reuss_Hill': 134.0, 'K_Reuss': 180.0, 'K_VRH': 180.0, 'K_Voigt': 180.0, 'K_Voigt_Reuss_Hill': 180.0, 'elastic_anisotropy': 0.09, 'elastic_tensor': [[334.0, 93.0, 102.0, 0.0, 0.0, 0.0], [93.0, 334.0, 102.0, 0.0, 0.0, 0.0], [102.0, 102.0, 356.0, 0.0, 0.0, 0.0], [0.0, 0.0, 0.0, 158.0, 0.0, 0.0], [0.0, 0.0, 0.0, 0.0, 158.0, 0.0], [0.0, 0.0, 0.0, 0.0, 0.0, 120.0]], 'homogeneous_poisson': 0.2, 'poisson_ratio': 0.2, 'universal_anisotropy': 0.09, 'elastic_tensor_original': [[332.6607265380182, 94.68069266192623, 101.60892180522782, 0.0, 0.0, 0.0], [92.68878627061669, 334.734256338712, 101.3962508639128, 0.0, 0.0, 0.0], [102.89553942577771, 102.89550902927495, 355.90698381009076, 0.0, 0.0, 0.0], [-8.48397649220037e-05, 1.0963274569917e-05, -1.7269525751546923e-05, 157.6286524633808, 0.0, 0.0], [6.009009884658467e-05, -4.758007826533567e-05, -5.865676315000418e-05, 0.0, 157.90412542694898, 0.0], [0.00021545366748643472, 7.082677651418585e-05, -3.442672006120537e-05, 0.0, 0.0, 120.6793261610691]], 'compliance_tensor': [[3.4, -0.7, -0.8, -0.0, -0.0, -0.0], [-0.7, 3.4, -0.8, -0.0, -0.0, -0.0], [-0.8, -0.8, 3.3, 0.0, 0.0, 0.0], [-0.0, -0.0, 0.0, 6.3, -0.0, -0.0], [-0.0, -0.0, 0.0, -0.0, 6.3, 0.0], [-0.0, -0.0, 0.0, -0.0, -0.0, 8.3]], 'warnings': [], 'nsites': 8}",0,134,180,0.09,0.2,321.6