,mp_id,Formula,Composition,IPF,Density,Elastic_Tensor,E_above_Hull,G_VRH,K_VRH,Elastic_Anisotropy,poisson_ratio,Y_Modulus
130,mp-10969,CdCN2,"{'Cd': 1.0, 'C': 1.0, 'N': 2.0}",0.13859328,4.596316687,"{'G_Reuss': 21.0, 'G_VRH': 25.0, 'G_Voigt': 28.0, 'G_Voigt_Reuss_Hill': 25.0, 'K_Reuss': 80.0, 'K_VRH': 86.0, 'K_Voigt': 93.0, 'K_Voigt_Reuss_Hill': 86.0, 'elastic_anisotropy': 1.82, 'elastic_tensor': [[108.0, 54.0, 69.0, -1.0, 0.0, 0.0], [54.0, 108.0, 69.0, 1.0, 0.0, 0.0], [69.0, 69.0, 236.0, 0.0, 0.0, 0.0], [-1.0, 1.0, 0.0, 14.0, 0.0, 0.0], [0.0, 0.0, 0.0, 0.0, 14.0, -1.0], [0.0, 0.0, 0.0, 0.0, -1.0, 27.0]], 'homogeneous_poisson': 0.37, 'poisson_ratio': 0.37, 'universal_anisotropy': 1.82, 'elastic_tensor_original': [[107.8367397572362, 53.546798989030115, 69.34446001766841, 1.8180139858499984, 0.0, 0.0], [53.698707006840934, 107.79223755128677, 69.66233377935649, -1.8313026679772777, 0.0, 0.0], [68.82781481945295, 68.82784301674629, 236.2867994881255, 0.0, 0.0, 0.0], [0.44929957022253014, -0.2844203065757296, 0.36675230913394136, 14.193788421575952, 0.0, 0.0], [-0.00011223632614143917, -4.316320237640751e-05, -8.448641033491071e-05, -5.519649920022963e-05, 14.272169708205015, 0.400570578001299], [-0.00011251299552373217, -0.0001527795412938969, 0.00022599932145696158, -5.524650079406899e-05, 0.6267056517063232, 26.87692693779224]], 'compliance_tensor': [[13.4, -5.1, -2.4, 1.0, 0.0, 0.0], [-5.1, 13.4, -2.4, -1.0, 0.0, 0.0], [-2.4, -2.4, 5.6, -0.0, -0.0, -0.0], [1.0, -1.0, -0.0, 70.4, 0.0, 0.0], [-0.0, 0.0, 0.0, 0.0, 70.4, 2.1], [0.0, 0.0, -0.0, 0.0, 2.1, 37.1]], 'warnings': [], 'nsites': 4}",0,25,86,1.82,0.37,68.5
131,mp-12990,Ti2AlC,"{'Ti': 2.0, 'Al': 1.0, 'C': 1.0}",0.117383554,3.993100999,"{'G_Reuss': 112.0, 'G_VRH': 112.0, 'G_Voigt': 113.0, 'G_Voigt_Reuss_Hill': 112.0, 'K_Reuss': 137.0, 'K_VRH': 137.0, 'K_Voigt': 137.0, 'K_Voigt_Reuss_Hill': 137.0, 'elastic_anisotropy': 0.02, 'elastic_tensor': [[302.0, 62.0, 59.0, 0.0, 0.0, 0.0], [62.0, 302.0, 59.0, 0.0, 0.0, 0.0], [59.0, 59.0, 268.0, 0.0, 0.0, 0.0], [0.0, 0.0, 0.0, 106.0, 0.0, 0.0], [0.0, 0.0, 0.0, 0.0, 106.0, 0.0], [0.0, 0.0, 0.0, 0.0, 0.0, 120.0]], 'homogeneous_poisson': 0.18, 'poisson_ratio': 0.18, 'universal_anisotropy': 0.02, 'elastic_tensor_original': [[303.08882277291184, 61.39524026615209, 59.02315155083312, 0.0, 0.0, -1.1328105349233639e-05], [62.20966159179072, 302.30657311065863, 59.80898866678368, 0.0, 0.0, -5.689461878311765e-05], [59.05800773719941, 59.05797462003259, 268.26902338041, 0.0, 0.0, -1.1079021962680267e-05], [0.00013393699604607431, -8.74768817893304e-05, 0.00011975696117469318, 105.93506427249356, -1.992671567050544e-05, 0.0], [-0.000375072754326266, -0.00010986292389753495, 2.904695514857867e-05, -9.133334662165938e-07, 106.3908043932275, 0.0], [0.10187425276444509, 0.08990626995204586, 0.07712981486660846, 0.0, 0.0, 119.28384958639093]], 'compliance_tensor': [[3.6, -0.6, -0.7, -0.0, 0.0, 0.0], [-0.6, 3.6, -0.7, 0.0, -0.0, 0.0], [-0.7, -0.7, 4.0, -0.0, 0.0, -0.0], [0.0, 0.0, -0.0, 9.4, 0.0, 0.0], [-0.0, -0.0, 0.0, 0.0, 9.4, -0.0], [0.0, 0.0, -0.0, 0.0, -0.0, 8.3]], 'warnings': [], 'nsites': 8}",0,112,137,0.02,0.18,264.32
132,mp-20350,DyCoC,"{'Dy': 1.0, 'Co': 1.0, 'C': 1.0}",0.177834677,8.53903468,"{'G_Reuss': 48.0, 'G_VRH': 57.0, 'G_Voigt': 65.0, 'G_Voigt_Reuss_Hill': 57.0, 'K_Reuss': 132.0, 'K_VRH': 136.0, 'K_Voigt': 141.0, 'K_Voigt_Reuss_Hill': 136.0, 'elastic_anisotropy': 1.79, 'elastic_tensor': [[333.0, 60.0, 74.0, 0.0, 0.0, 0.0], [60.0, 333.0, 74.0, 0.0, 0.0, 0.0], [74.0, 74.0, 185.0, 0.0, 0.0, 0.0], [0.0, 0.0, 0.0, 41.0, 0.0, 0.0], [0.0, 0.0, 0.0, 0.0, 41.0, 0.0], [0.0, 0.0, 0.0, 0.0, 0.0, 30.0]], 'homogeneous_poisson': 0.32, 'poisson_ratio': 0.32, 'universal_anisotropy': 1.79, 'elastic_tensor_original': [[332.5329119256332, 59.62832475593562, 74.71355398801403, 0.0, 0.0, 0.0], [59.62832475593562, 332.5329119256332, 74.71355398801403, 0.0, 0.0, 0.0], [73.09963736462547, 73.09963736462547, 184.58024629985593, 0.0, 0.0, 0.0], [0.0, 0.0, 0.0, 40.83408653370571, 0.0, 0.0], [0.0, 0.0, 0.0, 0.0, 40.83408653370571, 0.0], [0.3007124574341592, -0.3007124574341592, 0.0, 0.0, 0.0, 30.069770641907834]], 'compliance_tensor': [[3.3, -0.3, -1.2, 0.0, 0.0, 0.0], [-0.3, 3.3, -1.2, 0.0, 0.0, 0.0], [-1.2, -1.2, 6.4, 0.0, 0.0, 0.0], [0.0, 0.0, 0.0, 24.5, 0.0, 0.0], [0.0, 0.0, 0.0, 0.0, 24.5, 0.0], [0.0, 0.0, 0.0, 0.0, 0.0, 33.3]], 'warnings': ['Contains a rare earth element'], 'nsites': 6}",0,57,136,1.79,0.32,150.48
133,mp-21003,Y2ReC2,"{'Y': 2.0, 'Re': 1.0, 'C': 2.0}",0.133203472,7.687495087,"{'G_Reuss': 72.0, 'G_VRH': 74.0, 'G_Voigt': 76.0, 'G_Voigt_Reuss_Hill': 74.0, 'K_Reuss': 124.0, 'K_VRH': 124.0, 'K_Voigt': 124.0, 'K_Voigt_Reuss_Hill': 124.0, 'elastic_anisotropy': 0.29, 'elastic_tensor': [[234.0, 77.0, 56.0, 0.0, 0.0, 0.0], [77.0, 217.0, 64.0, 0.0, 0.0, 0.0], [56.0, 64.0, 270.0, 0.0, 0.0, 0.0], [0.0, 0.0, 0.0, 52.0, 0.0, 0.0], [0.0, 0.0, 0.0, 0.0, 65.0, 0.0], [0.0, 0.0, 0.0, 0.0, 0.0, 89.0]], 'homogeneous_poisson': 0.25, 'poisson_ratio': 0.25, 'universal_anisotropy': 0.29, 'elastic_tensor_original': [[270.1386752896058, 55.735464399183435, 63.489748732216185, 0.0, 0.0, 0.0], [56.33867497963055, 234.20482893121928, 76.72534105987542, 0.0, 0.0, 0.0], [63.883019294662965, 77.01201751937869, 217.4586832151547, 0.0, 0.0, 0.0], [0.0027323014518696787, 0.016318390656422748, 0.005361233456852924, 89.17966847511067, 0.0, 0.0], [0.0002031263573335391, 0.00046187929662157154, -4.0069938979926784e-05, 0.0, 51.57251359216485, 0.0], [0.0009054453138517887, 0.0004366493476067939, 0.005065085765646141, 0.0, 0.0, 65.16493255447547]], 'compliance_tensor': [[4.9, -1.6, -0.7, 0.0, -0.0, 0.0], [-1.6, 5.4, -1.0, 0.0, 0.0, 0.0], [-0.7, -1.0, 4.1, 0.0, 0.0, 0.0], [0.0, 0.0, 0.0, 19.4, 0.0, 0.0], [-0.0, 0.0, 0.0, 0.0, 15.3, 0.0], [0.0, 0.0, 0.0, 0.0, 0.0, 11.2]], 'warnings': [], 'nsites': 20}",0,74,124,0.29,0.25,185
134,mp-21023,Ti3SnC2,"{'Ti': 3.0, 'Sn': 1.0, 'C': 2.0}",0.128994251,5.906377008,"{'G_Reuss': 111.0, 'G_VRH': 112.0, 'G_Voigt': 112.0, 'G_Voigt_Reuss_Hill': 112.0, 'K_Reuss': 158.0, 'K_VRH': 158.0, 'K_Voigt': 159.0, 'K_Voigt_Reuss_Hill': 158.0, 'elastic_anisotropy': 0.03, 'elastic_tensor': [[328.0, 90.0, 76.0, 0.0, 0.0, 0.0], [90.0, 328.0, 76.0, 0.0, 0.0, 0.0], [76.0, 76.0, 289.0, 0.0, 0.0, 0.0], [0.0, 0.0, 0.0, 103.0, 0.0, 0.0], [0.0, 0.0, 0.0, 0.0, 103.0, 0.0], [0.0, 0.0, 0.0, 0.0, 0.0, 119.0]], 'homogeneous_poisson': 0.21, 'poisson_ratio': 0.21, 'universal_anisotropy': 0.03, 'elastic_tensor_original': [[328.6905713635051, 89.34871021316994, 75.81666755266237, 0.0, 0.0, -4.927517305898403e-06], [89.05781048306189, 328.98732859870984, 75.15151109866463, 0.0, 0.0, 0.0], [76.30437270589825, 76.30436904618136, 288.79417664059457, 0.0, 0.0, 0.0], [0.00010475990418338492, -0.0002554164330519425, 0.00026880642080960316, 103.01989783101591, 0.0, 0.0], [0.00014482973346467584, -3.9029928171199095e-05, 0.0001993896330547483, -7.999985277262644e-08, 103.35874432419419, 0.0], [0.05871788739266591, 0.04242704066380881, 0.06779857255906824, 0.0, 0.0, 119.03572749465482]], 'compliance_tensor': [[3.4, -0.8, -0.7, -0.0, 0.0, -0.0], [-0.8, 3.4, -0.7, 0.0, -0.0, -0.0], [-0.7, -0.7, 3.8, 0.0, -0.0, 0.0], [-0.0, 0.0, 0.0, 9.7, -0.0, -0.0], [0.0, -0.0, -0.0, -0.0, 9.7, 0.0], [-0.0, -0.0, 0.0, -0.0, 0.0, 8.4]], 'warnings': [], 'nsites': 12}",0,112,158,0.03,0.21,271.04
135,mp-21035,Sc3PbC,"{'Sc': 3.0, 'Pb': 1.0, 'C': 1.0}",0.155073298,6.182344982,"{'G_Reuss': 76.0, 'G_VRH': 76.0, 'G_Voigt': 76.0, 'G_Voigt_Reuss_Hill': 76.0, 'K_Reuss': 97.0, 'K_VRH': 97.0, 'K_Voigt': 97.0, 'K_Voigt_Reuss_Hill': 97.0, 'elastic_anisotropy': 0.03, 'elastic_tensor': [[208.0, 42.0, 42.0, 0.0, 0.0, 0.0], [42.0, 208.0, 42.0, 0.0, 0.0, 0.0], [42.0, 42.0, 208.0, 0.0, 0.0, 0.0], [0.0, 0.0, 0.0, 72.0, 0.0, 0.0], [0.0, 0.0, 0.0, 0.0, 72.0, 0.0], [0.0, 0.0, 0.0, 0.0, 0.0, 72.0]], 'homogeneous_poisson': 0.19, 'poisson_ratio': 0.19, 'universal_anisotropy': 0.03, 'elastic_tensor_original': [[207.81035708351735, 41.53123991104477, 41.53123991104477, 0.0, 0.0, 0.0], [41.5323430717332, 207.8123276513263, 41.5323430717332, 0.0, 0.0, 0.0], [41.52602578581315, 41.52602578581315, 207.80719797839873, 0.0, 0.0, 0.0], [0.0006806633283626293, 0.0005272933294836746, 0.0006353299953608121, 71.55197374747915, 0.0, 0.0], [0.00045999666330857317, 0.0005091066629487889, 0.00029003666454877405, 0.0, 71.55204199414534, 0.0], [-0.0004272333302130102, -0.00039925999708370326, -0.00025336666481641995, 0.0, 0.0, 71.5520585941452]], 'compliance_tensor': [[5.2, -0.9, -0.9, 0.0, -0.0, -0.0], [-0.9, 5.2, -0.9, -0.0, 0.0, -0.0], [-0.9, -0.9, 5.2, -0.0, -0.0, 0.0], [0.0, -0.0, -0.0, 14.0, -0.0, -0.0], [-0.0, 0.0, -0.0, -0.0, 14.0, -0.0], [-0.0, -0.0, 0.0, -0.0, -0.0, 14.0]], 'warnings': [], 'nsites': 5}",0,76,97,0.03,0.19,180.88
136,mp-21422,YCoC,"{'Y': 1.0, 'Co': 1.0, 'C': 1.0}",0.147149473,5.808143712,"{'G_Reuss': 51.0, 'G_VRH': 60.0, 'G_Voigt': 68.0, 'G_Voigt_Reuss_Hill': 60.0, 'K_Reuss': 139.0, 'K_VRH': 143.0, 'K_Voigt': 146.0, 'K_Voigt_Reuss_Hill': 143.0, 'elastic_anisotropy': 1.67, 'elastic_tensor': [[341.0, 58.0, 80.0, 0.0, 0.0, 0.0], [58.0, 341.0, 80.0, 0.0, 0.0, 0.0], [80.0, 80.0, 195.0, 0.0, 0.0, 0.0], [0.0, 0.0, 0.0, 45.0, 0.0, 0.0], [0.0, 0.0, 0.0, 0.0, 45.0, 0.0], [0.0, 0.0, 0.0, 0.0, 0.0, 31.0]], 'homogeneous_poisson': 0.32, 'poisson_ratio': 0.32, 'universal_anisotropy': 1.67, 'elastic_tensor_original': [[341.1740435544245, 57.9330835329788, 81.83066123315959, 0.0, 0.0, 0.0], [57.9346120666578, 341.1748024793859, 81.8313698240461, 0.0, 0.0, 0.0], [78.94640327489495, 78.94640327489495, 195.38239052041706, 0.0, 0.0, 0.0], [-2.779688930970356e-05, -1.2735216325253318e-06, -2.1390107718238416e-05, 44.7200495994219, 0.0, 0.0], [7.462020963289972e-05, 6.822354827256029e-05, 1.1663559364523535e-05, 0.0, 44.720049029900515, 0.0], [-1.9366605581910698e-06, -1.157005945175954e-05, 2.2606641397562493e-05, 0.0, 0.0, 31.273306151378502]], 'compliance_tensor': [[3.3, -0.3, -1.2, 0.0, -0.0, 0.0], [-0.3, 3.3, -1.2, 0.0, -0.0, -0.0], [-1.2, -1.2, 6.1, 0.0, 0.0, -0.0], [0.0, 0.0, 0.0, 22.4, 0.0, 0.0], [-0.0, -0.0, 0.0, 0.0, 22.4, 0.0], [0.0, -0.0, -0.0, 0.0, 0.0, 32.0]], 'warnings': [], 'nsites': 6}",0,60,143,1.67,0.32,158.4
137,mp-22394,ThRu3C,"{'Th': 1.0, 'Ru': 3.0, 'C': 1.0}",0.11898601,11.98890699,"{'G_Reuss': 105.0, 'G_VRH': 105.0, 'G_Voigt': 106.0, 'G_Voigt_Reuss_Hill': 105.0, 'K_Reuss': 223.0, 'K_VRH': 223.0, 'K_Voigt': 223.0, 'K_Voigt_Reuss_Hill': 223.0, 'elastic_anisotropy': 0.06, 'elastic_tensor': [[384.0, 142.0, 142.0, 0.0, 0.0, 0.0], [142.0, 384.0, 142.0, 0.0, 0.0, 0.0], [142.0, 142.0, 384.0, 0.0, 0.0, 0.0], [0.0, 0.0, 0.0, 96.0, 0.0, 0.0], [0.0, 0.0, 0.0, 0.0, 96.0, 0.0], [0.0, 0.0, 0.0, 0.0, 0.0, 96.0]], 'homogeneous_poisson': 0.3, 'poisson_ratio': 0.3, 'universal_anisotropy': 0.06, 'elastic_tensor_original': [[384.08951483399807, 142.08929528437105, 142.08929528437105, 0.0, 0.0, 0.0], [142.08929528437105, 384.08951483399807, 142.08929528437105, 0.0, 0.0, 0.0], [142.08929528437105, 142.08929528437105, 384.08951483399807, 0.0, 0.0, 0.0], [0.0, 0.0, 0.0, 95.99894681325746, 0.0, 0.0], [0.0, 0.0, 0.0, 0.0, 95.99894681325742, 0.0], [0.0, 0.0, 0.0, 0.0, 0.0, 95.99894681325742]], 'compliance_tensor': [[3.3, -0.9, -0.9, 0.0, 0.0, 0.0], [-0.9, 3.3, -0.9, 0.0, 0.0, 0.0], [-0.9, -0.9, 3.3, 0.0, 0.0, 0.0], [0.0, 0.0, 0.0, 10.4, 0.0, 0.0], [0.0, 0.0, 0.0, 0.0, 10.4, 0.0], [0.0, 0.0, 0.0, 0.0, 0.0, 10.4]], 'warnings': ['Contains a rare earth element'], 'nsites': 5}",0,105,223,0.06,0.3,273
138,mp-22793,AlFe3C,"{'Al': 1.0, 'Fe': 3.0, 'C': 1.0}",0.173411047,6.473381428,"{'G_Reuss': 89.0, 'G_VRH': 98.0, 'G_Voigt': 106.0, 'G_Voigt_Reuss_Hill': 98.0, 'K_Reuss': 230.0, 'K_VRH': 230.0, 'K_Voigt': 230.0, 'K_Voigt_Reuss_Hill': 230.0, 'elastic_anisotropy': 0.97, 'elastic_tensor': [[447.0, 121.0, 121.0, 0.0, 0.0, 0.0], [121.0, 447.0, 121.0, 0.0, 0.0, 0.0], [121.0, 121.0, 447.0, 0.0, 0.0, 0.0], [0.0, 0.0, 0.0, 68.0, 0.0, 0.0], [0.0, 0.0, 0.0, 0.0, 68.0, 0.0], [0.0, 0.0, 0.0, 0.0, 0.0, 68.0]], 'homogeneous_poisson': 0.31, 'poisson_ratio': 0.31, 'universal_anisotropy': 0.97, 'elastic_tensor_original': [[447.3535863504671, 121.49362533446428, 121.49362533446428, 0.0, 0.0, 0.0], [121.4919698097837, 447.35209102129534, 121.4919698097837, 0.0, 0.0, 0.0], [121.49509482357352, 121.49509482357352, 447.3542567463704, 0.0, 0.0, 0.0], [-0.00010562731241242171, -0.00017488056707054846, -8.240177992235706e-06, 68.28507752533315, 0.0, 0.0], [-0.0001619930262408064, -3.2698444470800294e-06, 6.392356147706409e-05, 0.0, 68.28470880601458, 0.0], [-0.00011406067171082916, 0.0002865925137668615, 0.00033190637134318404, 0.0, 0.0, 68.28514312577123]], 'compliance_tensor': [[2.5, -0.5, -0.5, 0.0, -0.0, 0.0], [-0.5, 2.5, -0.5, 0.0, 0.0, 0.0], [-0.5, -0.5, 2.5, 0.0, -0.0, -0.0], [0.0, 0.0, 0.0, 14.6, 0.0, 0.0], [-0.0, 0.0, -0.0, 0.0, 14.6, 0.0], [0.0, 0.0, -0.0, 0.0, 0.0, 14.6]], 'warnings': [], 'nsites': 5}",0,98,230,0.97,0.31,256.76
139,mp-28479,Sc2CCl2,"{'Sc': 2.0, 'C': 1.0, 'Cl': 2.0}",0.095106064,2.758216961,"{'G_Reuss': 1.0, 'G_VRH': 14.0, 'G_Voigt': 28.0, 'G_Voigt_Reuss_Hill': 14.0, 'K_Reuss': -1.0, 'K_VRH': 20.0, 'K_Voigt': 40.0, 'K_Voigt_Reuss_Hill': 20.0, 'elastic_anisotropy': 206.08, 'elastic_tensor': [[144.0, 35.0, 1.0, -0.0, 0.0, 0.0], [35.0, 144.0, 1.0, 0.0, 0.0, 0.0], [1.0, 1.0, -1.0, 0.0, 0.0, 0.0], [-0.0, 0.0, 0.0, 0.0, 0.0, 0.0], [0.0, 0.0, 0.0, 0.0, 0.0, -0.0], [0.0, 0.0, 0.0, 0.0, -0.0, 54.0]], 'homogeneous_poisson': 0.21, 'poisson_ratio': 0.21, 'universal_anisotropy': 206.08, 'elastic_tensor_original': [[143.7841069005621, 34.869531896419105, 2.398075836555605, 0.042693395852824646, 0.0, 0.0], [34.928854503827324, 143.65619391251093, 2.1155686734541823, -0.026184780689173126, 0.0, 0.0], [-0.6813185309254501, -0.6813189877112362, -0.744837852670988, 0.0, 0.0, 0.0], [0.026296576095810487, -0.031107368224360447, -0.007408006158142326, 0.15970272322175752, 0.0, 0.0], [0.032643265119794804, -0.00029134599913004924, 0.024497464593951853, 0.0014230475069909139, 0.19446520649600904, 0.00963623141479787], [5.356967163735379e-05, -6.559483460798889e-05, 2.9562945586926017e-05, 0.0001086510363855737, 0.31424939499015786, 54.28996472649108]], 'compliance_tensor': [[7.4, -1.8, 5.9, 5.0, -0.0, 0.0], [-1.8, 7.4, 5.9, -5.0, 0.0, 0.0], [5.9, 5.9, -1330.2, 0.0, -0.0, 0.0], [5.0, -5.0, 0.0, 5652.5, 0.0, 0.0], [-0.0, 0.0, -0.0, 0.0, 5652.5, 10.1], [0.0, 0.0, 0.0, 0.0, 10.1, 18.4]], 'warnings': ['Elastic tensor has a negative eigenvalue', 'One or more K, G below 2 GPa'], 'nsites': 5}",0,14,20,206.08,0.21,33.88
140,mp-30161,Si2CN4,"{'Si': 2.0, 'C': 1.0, 'N': 4.0}",0.059473705,2.181959777,"{'G_Reuss': 2.0, 'G_VRH': 30.0, 'G_Voigt': 58.0, 'G_Voigt_Reuss_Hill': 30.0, 'K_Reuss': 112.0, 'K_VRH': 128.0, 'K_Voigt': 144.0, 'K_Voigt_Reuss_Hill': 128.0, 'elastic_anisotropy': 141.05, 'elastic_tensor': [[176.0, 126.0, 35.0, 0.0, 0.0, 0.0], [126.0, 452.0, 67.0, 0.0, 0.0, 0.0], [35.0, 67.0, 207.0, 0.0, 0.0, 0.0], [0.0, 0.0, 0.0, 0.0, 0.0, 0.0], [0.0, 0.0, 0.0, 0.0, 81.0, 0.0], [0.0, 0.0, 0.0, 0.0, 0.0, 5.0]], 'homogeneous_poisson': 0.39, 'poisson_ratio': 0.39, 'universal_anisotropy': 141.05, 'elastic_tensor_original': [[206.8984225722581, 38.23021777274754, 65.38268158863539, 0.0, 0.0, 0.0], [32.55109698127401, 175.57396937755394, 123.6380092940195, 0.0, 0.0, 0.0], [68.92473284164859, 128.92004370606307, 452.24518839584977, 0.0, 0.0, 0.0], [-0.1304514628522628, -0.08501471114691284, -0.0943608594407418, 5.388539526301885, 0.0, 0.0], [-0.07528548884173998, 0.0420435388721293, -0.04288046354432539, 0.0, 0.43506355928784707, 0.0], [0.09106508647124524, 0.07844276319297934, 0.14356012947935365, 0.0, 0.0, 81.3430517418851]], 'compliance_tensor': [[7.2, -1.9, -0.6, 0.0, 0.0, 0.0], [-1.9, 2.8, -0.6, 0.0, 0.0, 0.0], [-0.6, -0.6, 5.1, 0.0, 0.0, 0.0], [0.0, 0.0, 0.0, 2298.5, 0.0, 0.0], [0.0, 0.0, 0.0, 0.0, 12.3, 0.0], [0.0, 0.0, 0.0, 0.0, 0.0, 185.6]], 'warnings': ['One or more K, G below 2 GPa'], 'nsites': 14}",0,30,128,141.05,0.39,83.4
141,mp-3871,Ti2SnC,"{'Ti': 2.0, 'Sn': 1.0, 'C': 1.0}",0.127594033,6.244640757,"{'G_Reuss': 92.0, 'G_VRH': 92.0, 'G_Voigt': 92.0, 'G_Voigt_Reuss_Hill': 92.0, 'K_Reuss': 135.0, 'K_VRH': 135.0, 'K_Voigt': 135.0, 'K_Voigt_Reuss_Hill': 135.0, 'elastic_anisotropy': 0.01, 'elastic_tensor': [[262.0, 81.0, 69.0, 0.0, 0.0, 0.0], [81.0, 262.0, 69.0, 0.0, 0.0, 0.0], [69.0, 69.0, 258.0, 0.0, 0.0, 0.0], [0.0, 0.0, 0.0, 91.0, 0.0, 0.0], [0.0, 0.0, 0.0, 0.0, 91.0, 0.0], [0.0, 0.0, 0.0, 0.0, 0.0, 90.0]], 'homogeneous_poisson': 0.22, 'poisson_ratio': 0.22, 'universal_anisotropy': 0.01, 'elastic_tensor_original': [[263.0884860067147, 79.90674205502951, 68.74303275244685, 0.0, 0.0, 8.674482348625758e-06], [79.81756167157423, 261.87393821803863, 68.20126873717616, 0.0, 0.0, 9.525289542310845e-05], [69.55849910876557, 69.5584685711078, 258.1810344364881, 0.0, 0.0, 2.5278058185117038e-05], [0.00012048648277916316, 3.102328598685572e-05, -9.831651661213613e-05, 90.79317303690229, 3.2999949635032096e-05, 0.0], [-7.925011151469025e-05, -0.000119533501532988, -6.455342416817482e-05, 0.0, 91.03028618266173, 0.0], [0.0732313755411997, -0.041238012309427655, 0.0827226683933557, 0.0, 0.0, 89.57543413277568]], 'compliance_tensor': [[4.4, -1.1, -0.9, 0.0, -0.0, -0.0], [-1.1, 4.4, -0.9, -0.0, 0.0, -0.0], [-0.9, -0.9, 4.3, -0.0, -0.0, 0.0], [-0.0, -0.0, -0.0, 11.0, -0.0, 0.0], [-0.0, 0.0, 0.0, -0.0, 11.0, 0.0], [-0.0, -0.0, 0.0, -0.0, 0.0, 11.1]], 'warnings': [], 'nsites': 8}",0,92,135,0.01,0.22,224.48
142,mp-4124,CaCN2,"{'Ca': 1.0, 'C': 1.0, 'N': 2.0}",0.141502381,2.237002426,"{'G_Reuss': 17.0, 'G_VRH': 22.0, 'G_Voigt': 28.0, 'G_Voigt_Reuss_Hill': 22.0, 'K_Reuss': 64.0, 'K_VRH': 69.0, 'K_Voigt': 74.0, 'K_Voigt_Reuss_Hill': 69.0, 'elastic_anisotropy': 3.45, 'elastic_tensor': [[98.0, 34.0, 51.0, -5.0, 0.0, 0.0], [34.0, 98.0, 51.0, 5.0, 0.0, 0.0], [51.0, 51.0, 199.0, 0.0, 0.0, 0.0], [-5.0, 5.0, 0.0, 10.0, 0.0, 0.0], [0.0, 0.0, 0.0, 0.0, 10.0, -5.0], [0.0, 0.0, 0.0, 0.0, -5.0, 32.0]], 'homogeneous_poisson': 0.35, 'poisson_ratio': 0.35, 'universal_anisotropy': 3.45, 'elastic_tensor_original': [[98.76300976615546, 32.82203157073708, 51.46890153004046, 8.452407883946991, 0.0, 0.0], [33.2125261102566, 98.58805913627988, 51.357990295145854, -8.10775963567588, 0.0, 0.0], [50.49179252976026, 50.49178143107823, 198.87951630932776, 0.0, 0.0, 0.0], [4.244700807966887, -3.978172982575296, -0.04951333055331813, 10.204833997532212, 0.0, 0.0], [0.0008760086172239931, 0.0006544955761594624, -0.001893442414581632, 0.0007233630243437236, 10.635809647088612, 4.264486071266933], [0.00047436095407279376, 0.0004428646424509063, -0.0005259515250867068, -1.6933422857132246e-05, 4.184323523657095, 31.613350561605653]], 'compliance_tensor': [[13.2, -3.7, -2.4, 8.4, -0.0, -0.0], [-3.7, 13.2, -2.4, -8.4, -0.0, -0.0], [-2.4, -2.4, 6.3, -0.0, -0.0, 0.0], [8.4, -8.4, -0.0, 104.4, -0.0, -0.0], [-0.0, -0.0, -0.0, -0.0, 104.4, 16.9], [-0.0, -0.0, 0.0, -0.0, 16.9, 33.8]], 'warnings': [], 'nsites': 4}",0,22,69,3.45,0.35,59.4