,mp_id,Formula,Composition,IPF,Density,Elastic_Tensor,E_above_Hull,G_VRH,K_VRH,Elastic_Anisotropy,poisson_ratio,Y_Modulus
195,mp-996162,Nb2AlC,"{'Nb': 2.0, 'Al': 1.0, 'C': 1.0}",0.101818609,6.313226218,"{'G_Reuss': 112.0, 'G_VRH': 114.0, 'G_Voigt': 115.0, 'G_Voigt_Reuss_Hill': 114.0, 'K_Reuss': 173.0, 'K_VRH': 173.0, 'K_Voigt': 173.0, 'K_Voigt_Reuss_Hill': 173.0, 'elastic_anisotropy': 0.13, 'elastic_tensor': [[311.0, 93.0, 115.0, 0.0, 0.0, 0.0], [93.0, 311.0, 115.0, 0.0, 0.0, 0.0], [115.0, 115.0, 291.0, 0.0, 0.0, 0.0], [0.0, 0.0, 0.0, 135.0, 0.0, 0.0], [0.0, 0.0, 0.0, 0.0, 135.0, 0.0], [0.0, 0.0, 0.0, 0.0, 0.0, 109.0]], 'homogeneous_poisson': 0.23, 'poisson_ratio': 0.23, 'universal_anisotropy': 0.13, 'elastic_tensor_original': [[315.5659699464545, 89.24640011865243, 114.54889013772357, 0.0, 0.0, 0.0], [88.92725820837468, 315.52447440450277, 114.29150974907076, 0.0, 0.0, 0.0], [115.19183583872534, 115.19193684898097, 290.8752263713711, 0.0, 0.0, 0.0], [-0.014309820915959203, 0.014010569912924565, -0.012474436431800035, 134.8152769543375, 0.0, 0.0], [-0.0005024577472311983, 0.005740142034419038, 0.007137195181381807, 0.0, 135.30347369662837, 0.0], [0.00030538383495195507, 0.00011816352880229537, 0.00019739698962687973, 0.0, 0.0, 105.10263816749553]], 'compliance_tensor': [[3.9, -0.7, -1.3, -0.0, -0.0, 0.0], [-0.7, 3.9, -1.3, -0.0, -0.0, 0.0], [-1.3, -1.3, 4.4, 0.0, 0.0, -0.0], [-0.0, -0.0, 0.0, 7.4, 0.0, -0.0], [0.0, -0.0, 0.0, 0.0, 7.4, -0.0], [0.0, 0.0, -0.0, -0.0, -0.0, 9.2]], 'warnings': [], 'nsites': 8}",0,114,173,0.13,0.23,280.44
196,mp-9989,Nb2AsC,"{'Nb': 2.0, 'As': 1.0, 'C': 1.0}",0.101666922,7.756326812,"{'G_Reuss': 114.0, 'G_VRH': 119.0, 'G_Voigt': 123.0, 'G_Voigt_Reuss_Hill': 119.0, 'K_Reuss': 205.0, 'K_VRH': 206.0, 'K_Voigt': 207.0, 'K_Voigt_Reuss_Hill': 206.0, 'elastic_anisotropy': 0.4, 'elastic_tensor': [[327.0, 110.0, 162.0, 0.0, 0.0, 0.0], [110.0, 327.0, 162.0, 0.0, 0.0, 0.0], [162.0, 162.0, 340.0, 0.0, 0.0, 0.0], [0.0, 0.0, 0.0, 160.0, 0.0, 0.0], [0.0, 0.0, 0.0, 0.0, 160.0, 0.0], [0.0, 0.0, 0.0, 0.0, 0.0, 109.0]], 'homogeneous_poisson': 0.26, 'poisson_ratio': 0.26, 'universal_anisotropy': 0.4, 'elastic_tensor_original': [[328.9124235211646, 107.4999069657822, 160.6096183242292, 0.0, 0.0, 0.0], [108.63928042822833, 328.67301591287537, 160.6656354642514, 0.0, 0.0, 0.0], [162.5246278997197, 162.52469693339174, 339.52758486238076, 0.0, 0.0, 0.0], [0.0004785500027391367, 0.00023141292984213714, 0.0002680600478668615, 160.28995751383945, 0.0, 0.0], [-2.765992288441677e-05, -0.00010503970716506305, 1.479662541803185e-05, 0.0, 160.38342012765693, 0.0], [0.00034856905603877704, -1.330663063332382e-05, -3.024658475738921e-05, 0.0, 0.0, 107.2184389559888]], 'compliance_tensor': [[4.1, -0.5, -1.7, 0.0, 0.0, 0.0], [-0.5, 4.1, -1.7, 0.0, -0.0, 0.0], [-1.7, -1.7, 4.5, -0.0, -0.0, -0.0], [0.0, 0.0, -0.0, 6.2, 0.0, -0.0], [0.0, -0.0, -0.0, 0.0, 6.2, -0.0], [0.0, 0.0, -0.0, -0.0, -0.0, 9.2]], 'warnings': [], 'nsites': 8}",0,119,206,0.4,0.26,299.88
197,mp-1025205,Y2Re2Si2C,"{'Y': 2.0, 'Re': 2.0, 'Si': 2.0, 'C': 1.0}",0.114818728,8.490938388,"{'G_Reuss': 69.0, 'G_VRH': 71.0, 'G_Voigt': 74.0, 'G_Voigt_Reuss_Hill': 71.0, 'K_Reuss': 149.0, 'K_VRH': 149.0, 'K_Voigt': 150.0, 'K_Voigt_Reuss_Hill': 149.0, 'elastic_anisotropy': 0.36, 'elastic_tensor': [[274.0, 115.0, 86.0, 0.0, -16.0, 0.0], [115.0, 213.0, 108.0, 0.0, 4.0, 0.0], [86.0, 108.0, 241.0, 0.0, 17.0, 0.0], [0.0, 0.0, 0.0, 78.0, 0.0, 18.0], [-16.0, 4.0, 17.0, 0.0, 66.0, 0.0], [0.0, 0.0, 0.0, 18.0, 0.0, 84.0]], 'homogeneous_poisson': 0.29, 'poisson_ratio': 0.29, 'universal_anisotropy': 0.36, 'elastic_tensor_original': [[274.1396270452452, 109.84849394626937, 83.79506316698141, 0.0, -15.647474626613958, 0.0], [119.86147845123551, 213.33576304304134, 115.25862228519294, 6.000029937268949e-07, 4.605748580474333, 1.3800068855718583e-05], [87.97594232586675, 100.47674964770258, 241.44551228196215, 0.0, 8.527930457321936, 0.0], [0.0, 3.861769512993228e-08, 0.0, 78.21492970298571, 0.0, 16.789395486517538], [-16.537319008400413, 3.991111319134653, 24.550696416990732, 0.0, 66.0989629585435, 0.0], [0.0, 1.9367250818700016e-07, 0.0, 18.50192942589917, 0.0, 84.16837271094928]], 'compliance_tensor': [[5.0, -2.3, -0.9, 0.0, 1.6, -0.0], [-2.3, 7.1, -2.3, -0.0, -0.4, -0.0], [-0.9, -2.3, 5.6, -0.0, -1.5, 0.0], [0.0, -0.0, -0.0, 13.4, -0.0, -2.8], [1.6, -0.4, -1.5, -0.0, 15.9, 0.0], [-0.0, -0.0, 0.0, -2.8, 0.0, 12.5]], 'warnings': [], 'nsites': 7}",0,71,149,0.36,0.29,183.18
198,mp-1025497,AlV2C,"{'Al': 1.0, 'V': 2.0, 'C': 1.0}",0.11120008,4.872389204,"{'G_Reuss': 130.0, 'G_VRH': 131.0, 'G_Voigt': 132.0, 'G_Voigt_Reuss_Hill': 131.0, 'K_Reuss': 171.0, 'K_VRH': 171.0, 'K_Voigt': 171.0, 'K_Voigt_Reuss_Hill': 171.0, 'elastic_anisotropy': 0.07, 'elastic_tensor': [[334.0, 73.0, 101.0, 0.0, 0.0, 0.0], [73.0, 334.0, 101.0, 0.0, 0.0, 0.0], [101.0, 101.0, 318.0, 0.0, 0.0, 0.0], [0.0, 0.0, 0.0, 146.0, 0.0, 0.0], [0.0, 0.0, 0.0, 0.0, 146.0, 0.0], [0.0, 0.0, 0.0, 0.0, 0.0, 131.0]], 'homogeneous_poisson': 0.19, 'poisson_ratio': 0.19, 'universal_anisotropy': 0.07, 'elastic_tensor_original': [[338.94341894820263, 67.85945110395522, 101.43803732830268, 0.0, 0.0, 0.0], [70.027291464767, 338.50934860520454, 101.47182893918226, 0.0, 0.0, 0.0], [100.33997217306194, 100.3399769929773, 317.9451089294112, 0.0, 0.0, 0.0], [-0.012286296514298986, -0.0047077922156810404, -0.0052812599643285735, 145.40014761798665, 0.0, 0.0], [-1.008338579870356e-05, -3.9536872389955566e-05, -2.8706816037812785e-05, 0.0, 145.79809390722005, 0.0], [-5.417017162806913e-05, -4.8033531248168576e-05, -4.1776832592301636e-05, 0.0, 0.0, 126.23608304766003]], 'compliance_tensor': [[3.4, -0.5, -0.9, -0.0, -0.0, -0.0], [-0.5, 3.4, -0.9, 0.0, -0.0, -0.0], [-0.9, -0.9, 3.7, -0.0, 0.0, 0.0], [-0.0, -0.0, -0.0, 6.9, -0.0, 0.0], [-0.0, -0.0, 0.0, -0.0, 6.9, 0.0], [-0.0, -0.0, 0.0, 0.0, 0.0, 7.7]], 'warnings': [], 'nsites': 8}",0,131,171,0.07,0.19,311.78
199,mp-11705,Dy2Fe2Si2C,"{'Dy': 2.0, 'Fe': 2.0, 'Si': 2.0, 'C': 1.0}",0.174479679,7.804425158,"{'G_Reuss': 79.0, 'G_VRH': 83.0, 'G_Voigt': 87.0, 'G_Voigt_Reuss_Hill': 83.0, 'K_Reuss': 125.0, 'K_VRH': 127.0, 'K_Voigt': 128.0, 'K_Voigt_Reuss_Hill': 127.0, 'elastic_anisotropy': 0.53, 'elastic_tensor': [[216.0, 83.0, 72.0, 0.0, -46.0, 0.0], [83.0, 257.0, 76.0, 0.0, 10.0, 0.0], [72.0, 76.0, 217.0, 0.0, 8.0, 0.0], [0.0, 0.0, 0.0, 93.0, 0.0, 16.0], [-46.0, 10.0, 8.0, 0.0, 93.0, 0.0], [0.0, 0.0, 0.0, 16.0, 0.0, 93.0]], 'homogeneous_poisson': 0.23, 'poisson_ratio': 0.23, 'universal_anisotropy': 0.53, 'elastic_tensor_original': [[215.77274602179764, 84.92475521171937, 76.90481885453046, 5.399963477366175e-06, -43.96213406226221, -2.6399821444901303e-05], [80.21745669856293, 256.7692050672161, 80.94663251959524, 1.4000319127088519e-06, 11.78245137240667, 9.800223388961962e-06], [66.41348526900863, 71.74961022110911, 217.24217242414235, -1.0000157330313766e-06, 8.949984608173322, -8.20012901085729e-06], [0.0, -3.7666687140925357e-08, 0.0, 93.4851083367981, 0.0, 15.375563624618604], [-48.62097232441008, 7.699249405302588, 7.555981869561827, -1.1400130159686805e-05, 93.24969976781925, 6.1000696468499565e-06], [0.0, -2.2859991629444761e-07, 0.0, 15.718361054638535, 0.0, 93.25580443977987]], 'compliance_tensor': [[6.7, -1.8, -1.7, -0.0, 3.6, 0.0], [-1.8, 4.8, -1.1, 0.0, -1.3, 0.0], [-1.7, -1.1, 5.6, 0.0, -1.2, -0.0], [-0.0, 0.0, 0.0, 11.0, 0.0, -1.8], [3.6, -1.3, -1.2, 0.0, 12.8, -0.0], [0.0, 0.0, -0.0, -1.8, -0.0, 11.0]], 'warnings': ['Contains a rare earth element'], 'nsites': 7}",0,83,127,0.53,0.23,204.18
200,mp-18969,FeCO3,"{'Fe': 1.0, 'C': 1.0, 'O': 3.0}",0.547053221,3.779463104,"{'G_Reuss': -31.0, 'G_VRH': -4.0, 'G_Voigt': 23.0, 'G_Voigt_Reuss_Hill': -4.0, 'K_Reuss': 105.0, 'K_VRH': 111.0, 'K_Voigt': 117.0, 'K_Voigt_Reuss_Hill': 111.0, 'elastic_anisotropy': -8.63, 'elastic_tensor': [[157.0, 162.0, 72.0, 17.0, 0.0, 0.0], [162.0, 157.0, 72.0, -17.0, 0.0, 0.0], [72.0, 72.0, 126.0, 0.0, 0.0, 0.0], [17.0, -17.0, 0.0, 37.0, 0.0, 0.0], [0.0, 0.0, 0.0, 0.0, 37.0, 17.0], [0.0, 0.0, 0.0, 0.0, 17.0, -2.0]], 'homogeneous_poisson': 0.52, 'poisson_ratio': 0.52, 'universal_anisotropy': -8.63, 'elastic_tensor_original': [[123.37172388240039, 195.0360672245044, 73.77219708165127, -25.941814007647668, 0.0, 0.0], [221.80701173047694, 97.65439642715747, 74.30624371412665, 22.932153261325514, 0.0, 0.0], [69.87815144098099, 69.8781178642368, 126.27802483211504, 0.0, 0.0, 0.0], [-12.551173370172467, 9.967707173876228, 1.0931382981171671, 37.433466668331434, 0.0, 0.0], [-0.12800027935397534, 0.019096761892860015, 0.029475669588281895, 0.006007387262114722, 36.1615905643148, -18.018816826014135], [0.009842728895908582, 0.15184145772320912, 0.03928678556457659, -0.008311861882513547, -15.20875986456199, 44.60259697183679]], 'compliance_tensor': [[-22.3, 26.5, -2.4, 22.9, 0.0, 0.0], [26.5, -22.3, -2.4, -22.9, -0.0, 0.0], [-2.4, -2.4, 10.7, 0.0, -0.0, 0.0], [22.9, -22.9, -0.0, 5.8, -0.0, -0.0], [0.0, -0.0, 0.0, -0.0, 5.8, 45.7], [0.0, 0.0, 0.0, -0.0, 45.7, -97.6]], 'warnings': ['Elastic tensor has a negative eigenvalue', 'c11 and c12 are within 5% or c12 is greater than c11', 'One or more K, G below 2 GPa'], 'nsites': 10}",0,-4,111,-8.63,0.52,-12.16
201,mp-29056,La3InC,"{'La': 3.0, 'In': 1.0, 'C': 1.0}",0.164622547,6.23726386,"{'G_Reuss': 40.0, 'G_VRH': 40.0, 'G_Voigt': 40.0, 'G_Voigt_Reuss_Hill': 40.0, 'K_Reuss': 28.0, 'K_VRH': 28.0, 'K_Voigt': 28.0, 'K_Voigt_Reuss_Hill': 28.0, 'elastic_anisotropy': 0.07, 'elastic_tensor': [[90.0, -2.0, -2.0, 0.0, 0.0, 0.0], [-2.0, 90.0, -2.0, 0.0, 0.0, 0.0], [-2.0, -2.0, 90.0, 0.0, 0.0, 0.0], [0.0, 0.0, 0.0, 36.0, 0.0, 0.0], [0.0, 0.0, 0.0, 0.0, 36.0, 0.0], [0.0, 0.0, 0.0, 0.0, 0.0, 36.0]], 'homogeneous_poisson': 0.02, 'poisson_ratio': 0.02, 'universal_anisotropy': 0.07, 'elastic_tensor_original': [[90.13282239167792, -2.396200554676036, -2.396200554676036, 0.0, 0.0, 0.0], [-2.3962005546760357, 90.13282239167792, -2.3962005546760357, 0.0, 0.0, 0.0], [-2.3962005546760357, -2.3962005546760357, 90.13282239167792, 0.0, 0.0, 0.0], [0.0, 0.0, 0.0, 36.144450593076286, 0.0, 0.0], [0.0, 0.0, 0.0, 0.0, 36.144450593076265, 0.0], [0.0, 0.0, 0.0, 0.0, 0.0, 36.144450593076265]], 'compliance_tensor': [[11.1, 0.3, 0.3, 0.0, 0.0, 0.0], [0.3, 11.1, 0.3, 0.0, 0.0, 0.0], [0.3, 0.3, 11.1, 0.0, 0.0, 0.0], [0.0, 0.0, 0.0, 27.7, 0.0, 0.0], [0.0, 0.0, 0.0, 0.0, 27.7, 0.0], [0.0, 0.0, 0.0, 0.0, 0.0, 27.7]], 'warnings': ['Contains a rare earth element'], 'nsites': 5}",0,40,28,0.07,0.02,81.6
202,mp-4079,Sc3AlC,"{'Sc': 3.0, 'Al': 1.0, 'C': 1.0}",0.110071,3.142635946,"{'G_Reuss': 83.0, 'G_VRH': 83.0, 'G_Voigt': 83.0, 'G_Voigt_Reuss_Hill': 83.0, 'K_Reuss': 102.0, 'K_VRH': 102.0, 'K_Voigt': 102.0, 'K_Voigt_Reuss_Hill': 102.0, 'elastic_anisotropy': 0.01, 'elastic_tensor': [[220.0, 43.0, 43.0, 0.0, 0.0, 0.0], [43.0, 220.0, 43.0, 0.0, 0.0, 0.0], [43.0, 43.0, 220.0, 0.0, 0.0, 0.0], [0.0, 0.0, 0.0, 79.0, 0.0, 0.0], [0.0, 0.0, 0.0, 0.0, 79.0, 0.0], [0.0, 0.0, 0.0, 0.0, 0.0, 79.0]], 'homogeneous_poisson': 0.18, 'poisson_ratio': 0.18, 'universal_anisotropy': 0.01, 'elastic_tensor_original': [[219.7826484402372, 42.702806312181636, 42.702806312181636, 0.0, 0.0, 0.0], [42.70596963401326, 219.78478964422715, 42.70596963401326, 0.0, 0.0, 0.0], [42.705280030632714, 42.705280030632714, 219.78363017788473, 0.0, 0.0, 0.0], [0.00018170859230432043, 0.00017550843715609464, 0.00023603535931273356, 79.19506385012056, 0.0, 0.0], [0.00029092571161110656, 0.0001811857103876266, 0.00031536885482592153, 0.0, 79.19522405014607, 0.0], [-2.7227223197575994e-05, -3.312712884150949e-05, -2.7660589333858894e-05, 0.0, 0.0, 79.19522176368295]], 'compliance_tensor': [[4.9, -0.8, -0.8, -0.0, -0.0, 0.0], [-0.8, 4.9, -0.8, 0.0, -0.0, -0.0], [-0.8, -0.8, 4.9, -0.0, 0.0, -0.0], [-0.0, 0.0, -0.0, 12.6, -0.0, -0.0], [-0.0, -0.0, 0.0, -0.0, 12.6, -0.0], [0.0, -0.0, -0.0, -0.0, -0.0, 12.6]], 'warnings': [], 'nsites': 5}",0,83,102,0.01,0.18,195.88
203,mp-4448,Y3AlC,"{'Y': 3.0, 'Al': 1.0, 'C': 1.0}",0.132443755,4.327411728,"{'G_Reuss': 63.0, 'G_VRH': 63.0, 'G_Voigt': 64.0, 'G_Voigt_Reuss_Hill': 63.0, 'K_Reuss': 80.0, 'K_VRH': 80.0, 'K_Voigt': 80.0, 'K_Voigt_Reuss_Hill': 80.0, 'elastic_anisotropy': 0.02, 'elastic_tensor': [[171.0, 34.0, 34.0, 0.0, 0.0, 0.0], [34.0, 171.0, 34.0, 0.0, 0.0, 0.0], [34.0, 34.0, 171.0, 0.0, 0.0, 0.0], [0.0, 0.0, 0.0, 60.0, 0.0, 0.0], [0.0, 0.0, 0.0, 0.0, 60.0, 0.0], [0.0, 0.0, 0.0, 0.0, 0.0, 60.0]], 'homogeneous_poisson': 0.19, 'poisson_ratio': 0.19, 'universal_anisotropy': 0.02, 'elastic_tensor_original': [[171.13278723941085, 33.72371826174738, 33.72371826174738, 0.0, 0.0, 0.0], [33.72191546290215, 171.13156424701032, 33.72191546290215, 0.0, 0.0, 0.0], [34.013523694064126, 34.013523694064126, 171.6469296890552, 0.0, 0.0, 0.0], [-0.0001808696754867944, -0.00018627633101958103, -0.00016072633135920996, 60.038596082897776, 0.0, 0.0], [0.00010916973452733613, 0.00012052635827300288, 0.00011909312964681967, 0.0, 60.03870790304391, 0.0], [-0.00013197597230296332, -0.00020044591117883957, -0.00011110920950273006, 0.0, 0.0, 60.03868524628483]], 'compliance_tensor': [[6.2, -1.0, -1.0, 0.0, 0.0, 0.0], [-1.0, 6.2, -1.0, -0.0, 0.0, 0.0], [-1.0, -1.0, 6.2, 0.0, -0.0, 0.0], [0.0, -0.0, 0.0, 16.7, -0.0, 0.0], [0.0, 0.0, -0.0, -0.0, 16.7, 0.0], [0.0, 0.0, 0.0, 0.0, 0.0, 16.7]], 'warnings': [], 'nsites': 5}",0,63,80,0.02,0.19,149.94
204,mp-4893,Hf2SnC,"{'Hf': 2.0, 'Sn': 1.0, 'C': 1.0}",0.109183241,11.55373762,"{'G_Reuss': 85.0, 'G_VRH': 86.0, 'G_Voigt': 87.0, 'G_Voigt_Reuss_Hill': 86.0, 'K_Reuss': 137.0, 'K_VRH': 138.0, 'K_Voigt': 138.0, 'K_Voigt_Reuss_Hill': 138.0, 'elastic_anisotropy': 0.12, 'elastic_tensor': [[242.0, 57.0, 100.0, 0.0, 0.0, 0.0], [57.0, 242.0, 100.0, 0.0, 0.0, 0.0], [100.0, 100.0, 246.0, 0.0, 0.0, 0.0], [0.0, 0.0, 0.0, 92.0, 0.0, 0.0], [0.0, 0.0, 0.0, 0.0, 92.0, 0.0], [0.0, 0.0, 0.0, 0.0, 0.0, 92.0]], 'homogeneous_poisson': 0.24, 'poisson_ratio': 0.24, 'universal_anisotropy': 0.12, 'elastic_tensor_original': [[242.48339665774358, 56.00693444690394, 100.73446363510098, 0.0, 0.0, 0.0], [56.51463257502749, 243.59470357664785, 101.27055601398901, 0.0, 0.0, 0.0], [99.34788908537311, 99.34796238016746, 246.3362191220955, 0.0, 0.0, 0.0], [-0.0002486900774012072, -0.0016454805121193306, -0.0026679308303384076, 91.99912857954143, 0.0, 0.0], [9.149999119086784e-06, 1.8053331593388816e-05, 1.2449998801687337e-05, 0.0, 92.74903411654795, 0.0], [-1.3946664737020077e-05, -7.493332292720249e-06, 2.3766663395034904e-06, 0.0, 0.0, 91.37718829817327]], 'compliance_tensor': [[5.0, -0.4, -1.9, 0.0, 0.0, 0.0], [-0.4, 5.0, -1.9, 0.0, -0.0, 0.0], [-1.9, -1.9, 5.6, -0.0, -0.0, -0.0], [0.0, 0.0, -0.0, 10.8, 0.0, -0.0], [0.0, -0.0, -0.0, 0.0, 10.8, -0.0], [0.0, 0.0, -0.0, -0.0, -0.0, 10.8]], 'warnings': [], 'nsites': 8}",0,86,138,0.12,0.24,213.28
205,mp-546500,NaCNO,"{'Na': 1.0, 'C': 1.0, 'N': 1.0, 'O': 1.0}",0.27176021,1.824578408,"{'G_Reuss': 5.0, 'G_VRH': 8.0, 'G_Voigt': 11.0, 'G_Voigt_Reuss_Hill': 8.0, 'K_Reuss': 24.0, 'K_VRH': 27.0, 'K_Voigt': 30.0, 'K_Voigt_Reuss_Hill': 27.0, 'elastic_anisotropy': 5.33, 'elastic_tensor': [[36.0, 12.0, 21.0, -3.0, 0.0, 0.0], [12.0, 36.0, 21.0, 3.0, 0.0, 0.0], [21.0, 21.0, 86.0, 0.0, 0.0, 0.0], [-3.0, 3.0, 0.0, 3.0, 0.0, 0.0], [0.0, 0.0, 0.0, 0.0, 3.0, -3.0], [0.0, 0.0, 0.0, 0.0, -3.0, 12.0]], 'homogeneous_poisson': 0.37, 'poisson_ratio': 0.37, 'universal_anisotropy': 5.33, 'elastic_tensor_original': [[35.994825166554214, 12.169396929789892, 21.679655859195485, 3.814410794018637, 0.0, 0.0], [12.329860465072215, 35.95932563185936, 21.426805308855116, -3.834856851901568, 0.0, 0.0], [20.586286759459696, 20.586283880478867, 85.79819500043915, 0.0, 0.0, 0.0], [2.203340280843517, -1.8935656624545991, 0.4547837043736644, 3.7086345426474634, 0.0, 0.0], [0.038802007536714395, 0.01363956735661423, 0.5389620329929476, -0.008452308078737345, 3.232032628159436, 1.970519903219871], [-0.011148034799062168, -0.014245036318529549, 0.10481984654989918, 0.002890380750931704, 2.6227227053623667, 11.365056042955423]], 'compliance_tensor': [[39.1, -12.7, -6.5, 39.1, -0.0, 0.0], [-12.7, 39.1, -6.5, -39.1, 0.0, 0.0], [-6.5, -6.5, 14.8, -0.0, 0.0, -0.0], [39.1, -39.1, -0.0, 347.1, 0.0, 0.0], [-0.0, 0.0, 0.0, 0.0, 347.1, 78.2], [0.0, 0.0, -0.0, 0.0, 78.2, 103.7]], 'warnings': [], 'nsites': 4}",0,8,27,5.33,0.37,21.92
206,mp-6102,NdNi2B2C,"{'Nd': 1.0, 'Ni': 2.0, 'B': 2.0, 'C': 1.0}",0.187395459,7.179174764,"{'G_Reuss': 72.0, 'G_VRH': 74.0, 'G_Voigt': 76.0, 'G_Voigt_Reuss_Hill': 74.0, 'K_Reuss': 178.0, 'K_VRH': 178.0, 'K_Voigt': 178.0, 'K_Voigt_Reuss_Hill': 178.0, 'elastic_anisotropy': 0.32, 'elastic_tensor': [[272.0, 119.0, 137.0, 0.0, 0.0, 0.0], [119.0, 272.0, 137.0, 0.0, 0.0, 0.0], [137.0, 137.0, 270.0, 0.0, 0.0, 0.0], [0.0, 0.0, 0.0, 62.0, 0.0, 0.0], [0.0, 0.0, 0.0, 0.0, 62.0, 0.0], [0.0, 0.0, 0.0, 0.0, 0.0, 118.0]], 'homogeneous_poisson': 0.32, 'poisson_ratio': 0.32, 'universal_anisotropy': 0.32, 'elastic_tensor_original': [[272.1037757707317, 119.05773966881426, 143.72441434965228, 0.0, 0.0, 0.0], [119.05773966882006, 272.1037757707317, 143.72441434965228, 0.0, 2.8884750675140013e-05, 0.0], [130.58971760712444, 130.58971760712444, 270.03776877802113, 0.0, 0.0, 0.0], [0.0, 1.2397756179815757e-05, 0.0, 61.68914230696811, -1.107776312518466e-07, 6.198825787164698e-06], [1.239775617804766e-05, 0.0, 0.0, 1.1077763125177394e-07, 61.68914230696811, 6.198931149457547e-06], [1.179279169585155, -1.179279169586968, 0.0, 5.499980269985002e-07, -5.210119543115683e-09, 117.92163568113342]], 'compliance_tensor': [[5.3, -1.3, -2.0, 0.0, -0.0, 0.0], [-1.3, 5.3, -2.0, -0.0, 0.0, 0.0], [-2.0, -2.0, 5.8, -0.0, -0.0, 0.0], [0.0, -0.0, -0.0, 16.2, 0.0, -0.0], [-0.0, 0.0, -0.0, 0.0, 16.2, -0.0], [0.0, 0.0, 0.0, -0.0, -0.0, 8.5]], 'warnings': ['Contains a rare earth element'], 'nsites': 6}",0,74,178,0.32,0.32,195.36
207,mp-6459,CaMg(CO3)2,"{'Ca': 1.0, 'Mg': 1.0, 'C': 2.0, 'O': 6.0}",0.535183288,2.760182569,"{'G_Reuss': 39.0, 'G_VRH': 44.0, 'G_Voigt': 49.0, 'G_Voigt_Reuss_Hill': 44.0, 'K_Reuss': 85.0, 'K_VRH': 89.0, 'K_Voigt': 93.0, 'K_Voigt_Reuss_Hill': 89.0, 'elastic_anisotropy': 1.34, 'elastic_tensor': [[192.0, 65.0, 55.0, 17.0, 11.0, 0.0], [65.0, 192.0, 55.0, -17.0, -11.0, 0.0], [55.0, 55.0, 108.0, 0.0, 0.0, 0.0], [17.0, -17.0, 0.0, 37.0, 0.0, -11.0], [11.0, -11.0, 0.0, 0.0, 37.0, 17.0], [0.0, 0.0, 0.0, -11.0, 17.0, 63.0]], 'homogeneous_poisson': 0.29, 'poisson_ratio': 0.29, 'universal_anisotropy': 1.34, 'elastic_tensor_original': [[192.23537509967946, 64.29709333401509, 54.930278116041876, -16.157125244603353, -10.292729686511892, -0.21802904789115032], [64.77283826404626, 191.9678041963334, 54.69197734102577, 16.27556720702838, 10.398444359555507, -0.34130138411470157], [54.69129987365093, 54.69127339558426, 107.55909041392827, 0.0, 0.0, 1.3899165634620391e-08], [-17.113578538934945, 16.35205002272203, -0.14749846178686404, 37.016991059574536, -0.024261284044628777, 11.09407588467309], [-10.940826579854054, 11.120854028763459, 0.10318579685386293, 0.028066356637391633, 37.13226048843835, -16.619843017538454], [-0.2447954592969903, 0.07625714912875964, -0.08405179465839865, 11.025803253163097, -16.738228415207487, 62.70318386368888]], 'compliance_tensor': [[7.2, -2.3, -2.5, -4.2, -2.8, -0.0], [-2.3, 7.2, -2.5, 4.2, 2.8, -0.0], [-2.5, -2.5, 11.9, 0.0, -0.0, 0.0], [-4.2, 4.2, 0.0, 32.4, -0.0, 5.6], [-2.8, 2.8, -0.0, -0.0, 32.4, -8.5], [-0.0, -0.0, 0.0, 5.6, -8.5, 19.0]], 'warnings': [], 'nsites': 10}",0,44,89,1.34,0.29,113.52