,mp_id,Formula,Composition,IPF,Density,Elastic_Tensor,E_above_Hull,G_VRH,K_VRH,Elastic_Anisotropy,poisson_ratio,Y_Modulus
26,mp-567505,SiC,"{'Si': 1.0, 'C': 1.0}",0.036784218,3.169666699,"{'G_Reuss': 185.0, 'G_VRH': 187.0, 'G_Voigt': 189.0, 'G_Voigt_Reuss_Hill': 187.0, 'K_Reuss': 214.0, 'K_VRH': 214.0, 'K_Voigt': 214.0, 'K_Voigt_Reuss_Hill': 214.0, 'elastic_anisotropy': 0.11, 'elastic_tensor': [[487.0, 105.0, 51.0, 0.0, 0.0, 0.0], [105.0, 487.0, 51.0, 0.0, 0.0, 0.0], [51.0, 51.0, 535.0, 0.0, 0.0, 0.0], [0.0, 0.0, 0.0, 161.0, 0.0, 0.0], [0.0, 0.0, 0.0, 0.0, 161.0, 0.0], [0.0, 0.0, 0.0, 0.0, 0.0, 191.0]], 'homogeneous_poisson': 0.16, 'poisson_ratio': 0.16, 'universal_anisotropy': 0.11, 'elastic_tensor_original': [[487.4229740745279, 103.52916273997306, 51.04306492938141, 0.0, 0.0, 0.0], [103.36168519854269, 488.00492468464194, 51.400043493337726, 0.0, 0.0, 0.0], [51.70035669147556, 51.70038454756011, 534.5888898882367, 0.0, 0.0, 0.0], [-2.587328180089394e-05, 2.5623282298387237e-05, -3.2066602796853324e-06, 161.35280741186824, 0.0, 0.0], [2.772331593694077e-05, -2.7629982662411517e-05, 4.089997434186552e-06, 0.0, 161.47773774043844, 0.0], [-0.008317088003194818, 0.0034806311027129762, 0.023723991462772764, 0.0, 0.0, 189.76504803272866]], 'compliance_tensor': [[2.2, -0.4, -0.2, -0.0, -0.0, 0.0], [-0.4, 2.2, -0.2, -0.0, -0.0, 0.0], [-0.2, -0.2, 1.9, 0.0, 0.0, -0.0], [0.0, 0.0, 0.0, 6.2, 0.0, -0.0], [-0.0, -0.0, 0.0, 0.0, 6.2, 0.0], [0.0, 0.0, -0.0, 0.0, 0.0, 5.2]], 'warnings': [], 'nsites': 16}",0.41015175,187,214,0.11,0.16,433.84
27,mp-567551,SiC,"{'Si': 1.0, 'C': 1.0}",0.036832543,3.173830846,"{'G_Reuss': 185.0, 'G_VRH': 187.0, 'G_Voigt': 189.0, 'G_Voigt_Reuss_Hill': 187.0, 'K_Reuss': 214.0, 'K_VRH': 214.0, 'K_Voigt': 214.0, 'K_Voigt_Reuss_Hill': 214.0, 'elastic_anisotropy': 0.12, 'elastic_tensor': [[488.0, 104.0, 51.0, 0.0, 0.0, 0.0], [104.0, 488.0, 51.0, 0.0, 0.0, 0.0], [51.0, 51.0, 534.0, 0.0, 0.0, 0.0], [0.0, 0.0, 0.0, 160.0, 0.0, 0.0], [0.0, 0.0, 0.0, 0.0, 160.0, 0.0], [0.0, 0.0, 0.0, 0.0, 0.0, 192.0]], 'homogeneous_poisson': 0.16, 'poisson_ratio': 0.16, 'universal_anisotropy': 0.12, 'elastic_tensor_original': [[488.5003015532428, 103.36634933698909, 50.7872781646661, 0.0, 0.0, 0.0], [103.42930303511953, 488.3710753275311, 51.24317488726904, 0.0, 0.0, 0.0], [51.10027192866777, 51.10030560388487, 534.3736791533694, 0.0, 0.0, 0.0], [-0.0007113622101970036, -0.0018183758706660164, 4.6732996528210834e-05, 159.51804764696539, 0.0, 0.0], [0.0019902155916607977, 0.0011620165981070987, 0.001978052224154753, 0.0, 159.55907291999748, 0.0], [-0.08059030718554759, 0.06979810387517403, 0.0014697607491600316, 0.0, 0.0, 191.2991246433151]], 'compliance_tensor': [[2.2, -0.4, -0.2, 0.0, -0.0, 0.0], [-0.4, 2.2, -0.2, -0.0, -0.0, 0.0], [-0.2, -0.2, 1.9, 0.0, 0.0, -0.0], [0.0, -0.0, 0.0, 6.3, 0.0, -0.0], [-0.0, -0.0, 0.0, 0.0, 6.3, 0.0], [0.0, 0.0, -0.0, -0.0, 0.0, 5.2]], 'warnings': [], 'nsites': 32}",0.192918938,187,214,0.12,0.16,433.84
28,mp-567580,PaC,"{'Pa': 1.0, 'C': 1.0}",0.147710764,12.35551731,"{'G_Reuss': 78.0, 'G_VRH': 79.0, 'G_Voigt': 79.0, 'G_Voigt_Reuss_Hill': 79.0, 'K_Reuss': 172.0, 'K_VRH': 172.0, 'K_Voigt': 172.0, 'K_Voigt_Reuss_Hill': 172.0, 'elastic_anisotropy': 0.09, 'elastic_tensor': [[295.0, 110.0, 110.0, 0.0, 0.0, 0.0], [110.0, 295.0, 110.0, 0.0, 0.0, 0.0], [110.0, 110.0, 295.0, 0.0, 0.0, 0.0], [0.0, 0.0, 0.0, 71.0, 0.0, 0.0], [0.0, 0.0, 0.0, 0.0, 71.0, 0.0], [0.0, 0.0, 0.0, 0.0, 0.0, 71.0]], 'homogeneous_poisson': 0.3, 'poisson_ratio': 0.3, 'universal_anisotropy': 0.09, 'elastic_tensor_original': [[295.05300080411683, 110.44998619222099, 110.44998619222099, 0.0, 0.0, 0.0], [110.49758392411773, 295.106209428997, 110.49758392411773, 0.0, 0.0, 0.0], [110.45772972187953, 110.45772972187953, 295.07642806973803, 0.0, 0.0, 0.0], [-0.018260048985910573, -0.018187622536105078, -0.0185439461614504, 70.68330369671479, 0.0, 0.0], [0.00404740862095038, 0.002818388404337217, 0.0021028297215919473, 0.0, 70.68273095631795, 0.0], [0.0037425697364484576, 0.0017345144186442106, 0.003044537276743291, 0.0, 0.0, 70.6825587029207]], 'compliance_tensor': [[4.3, -1.2, -1.2, 0.0, 0.0, -0.0], [-1.2, 4.3, -1.2, -0.0, 0.0, 0.0], [-1.2, -1.2, 4.3, 0.0, -0.0, 0.0], [0.0, -0.0, 0.0, 14.1, 0.0, 0.0], [0.0, 0.0, -0.0, 0.0, 14.1, 0.0], [-0.0, 0.0, 0.0, 0.0, 0.0, 14.1]], 'warnings': ['Contains a rare earth element'], 'nsites': 2}",0,79,172,0.09,0.3,205.4
29,mp-568656,SiC,"{'Si': 1.0, 'C': 1.0}",0.03681023,3.171908191,"{'G_Reuss': 185.0, 'G_VRH': 187.0, 'G_Voigt': 189.0, 'G_Voigt_Reuss_Hill': 187.0, 'K_Reuss': 213.0, 'K_VRH': 213.0, 'K_Voigt': 213.0, 'K_Voigt_Reuss_Hill': 213.0, 'elastic_anisotropy': 0.12, 'elastic_tensor': [[488.0, 104.0, 50.0, 0.0, 0.0, 0.0], [104.0, 488.0, 50.0, -0.0, 0.0, 0.0], [50.0, 50.0, 534.0, 0.0, 0.0, 0.0], [0.0, -0.0, 0.0, 159.0, 0.0, 0.0], [0.0, 0.0, 0.0, 0.0, 159.0, 0.0], [0.0, 0.0, 0.0, 0.0, 0.0, 192.0]], 'homogeneous_poisson': 0.16, 'poisson_ratio': 0.16, 'universal_anisotropy': 0.12, 'elastic_tensor_original': [[488.85469552849, 103.2392465776994, 50.23629857533817, -0.06373407107301801, 0.0, 0.0], [103.54646881339438, 488.384143196509, 50.418417836556515, 0.0015138963979601876, 0.0, 0.0], [50.53037571524441, 50.530411152426566, 533.9638015420611, 0.0, 0.0, 0.0], [-0.0437934463509757, 0.0015266581313686984, -0.036736652705385606, 159.14189150835637, 0.0, 0.0], [5.575982107018973e-05, -3.046989624157152e-05, -1.5529919553605786e-05, -9.033217048588967e-07, 159.21632534801424, -0.04062495432365726], [-0.0028121022987095097, 0.0005201562908021516, -0.0033455520223291233, -0.003552371905005808, 0.029563669212242707, 191.28432335972334]], 'compliance_tensor': [[2.2, -0.4, -0.2, -0.0, -0.0, 0.0], [-0.4, 2.2, -0.2, 0.0, -0.0, 0.0], [-0.2, -0.2, 1.9, 0.0, -0.0, -0.0], [-0.0, 0.0, 0.0, 6.3, 0.0, -0.0], [-0.0, -0.0, -0.0, 0.0, 6.3, -0.0], [0.0, 0.0, -0.0, -0.0, -0.0, 5.2]], 'warnings': [], 'nsites': 20}",0,187,213,0.12,0.16,433.84
30,mp-568696,SiC,"{'Si': 1.0, 'C': 1.0}",0.036815939,3.172400112,"{'G_Reuss': 185.0, 'G_VRH': 187.0, 'G_Voigt': 189.0, 'G_Voigt_Reuss_Hill': 187.0, 'K_Reuss': 213.0, 'K_VRH': 213.0, 'K_Voigt': 213.0, 'K_Voigt_Reuss_Hill': 213.0, 'elastic_anisotropy': 0.12, 'elastic_tensor': [[486.0, 104.0, 51.0, 0.0, 0.0, 0.0], [104.0, 486.0, 51.0, 0.0, 0.0, 0.0], [51.0, 51.0, 535.0, 0.0, 0.0, 0.0], [0.0, 0.0, 0.0, 161.0, 0.0, 0.0], [0.0, 0.0, 0.0, 0.0, 161.0, 0.0], [0.0, 0.0, 0.0, 0.0, 0.0, 191.0]], 'homogeneous_poisson': 0.16, 'poisson_ratio': 0.16, 'universal_anisotropy': 0.12, 'elastic_tensor_original': [[487.9248691788106, 102.93714414913899, 51.18510505418917, -0.12794519114078326, 0.0, 0.0], [104.10257652631735, 486.29525017596836, 51.1851789035206, -0.13108829107562844, 0.0, 0.0], [50.949547856526586, 50.94960752892015, 535.1949455962576, 0.0, 0.0, 0.0], [-0.053571989782024376, 0.011806152451447668, -0.07198732043466306, 160.86916837718366, 0.0, 0.0], [-1.7234015185069603e-06, -0.0002665037806269008, -0.0018415800401232452, -0.0006834679172669323, 160.91084009717784, 0.047897903450633716], [-0.026721404053856937, 0.022483353338120585, 0.0005822173830705795, -0.009014354941823448, -0.026011673212537206, 190.381478588575]], 'compliance_tensor': [[2.2, -0.4, -0.2, -0.0, 0.0, 0.0], [-0.4, 2.2, -0.2, 0.0, -0.0, 0.0], [-0.2, -0.2, 1.9, 0.0, 0.0, -0.0], [-0.0, 0.0, 0.0, 6.2, 0.0, -0.0], [0.0, -0.0, 0.0, 0.0, 6.2, -0.0], [0.0, 0.0, -0.0, -0.0, -0.0, 5.2]], 'warnings': [], 'nsites': 28}",0.853608357,187,213,0.12,0.16,433.84
31,mp-568735,SiC,"{'Si': 1.0, 'C': 1.0}",0.036826313,3.173293994,"{'G_Reuss': 184.0, 'G_VRH': 187.0, 'G_Voigt': 189.0, 'G_Voigt_Reuss_Hill': 187.0, 'K_Reuss': 213.0, 'K_VRH': 213.0, 'K_Voigt': 213.0, 'K_Voigt_Reuss_Hill': 213.0, 'elastic_anisotropy': 0.13, 'elastic_tensor': [[488.0, 104.0, 50.0, -0.0, 0.0, 0.0], [104.0, 488.0, 50.0, 0.0, 0.0, 0.0], [50.0, 50.0, 534.0, 0.0, 0.0, 0.0], [-0.0, 0.0, 0.0, 159.0, 0.0, 0.0], [0.0, 0.0, 0.0, 0.0, 159.0, -0.0], [0.0, 0.0, 0.0, 0.0, -0.0, 192.0]], 'homogeneous_poisson': 0.16, 'poisson_ratio': 0.16, 'universal_anisotropy': 0.13, 'elastic_tensor_original': [[488.87884538638593, 103.44831243500481, 50.326210740312355, 0.07906363938967434, 0.0, 0.0], [103.67551405815703, 488.726540910803, 50.30775452379516, -0.11879024437955352, 0.0, 0.0], [50.2140725724146, 50.21401811965499, 534.0439336456357, 0.0, 0.0, 0.0], [-0.02550848298674827, -0.08122641863455005, 0.03915137838200906, 158.5460775762562, 0.0, 0.0], [3.210994125890224e-05, -4.3256675217734705e-05, -1.0939931955635437e-05, 4.3999226496966565e-07, 158.60177385984838, 0.051670120791738744], [3.282668817469793e-05, 2.787333469579832e-05, -0.00038386354798283925, -0.0011856973199722775, -0.01928147623865808, 191.97389905258655]], 'compliance_tensor': [[2.2, -0.4, -0.2, 0.0, 0.0, -0.0], [-0.4, 2.2, -0.2, -0.0, -0.0, -0.0], [-0.2, -0.2, 1.9, -0.0, -0.0, 0.0], [0.0, -0.0, 0.0, 6.3, -0.0, -0.0], [0.0, -0.0, -0.0, -0.0, 6.3, 0.0], [-0.0, -0.0, 0.0, -0.0, 0.0, 5.2]], 'warnings': [], 'nsites': 36}",0.767991333,187,213,0.13,0.16,433.84
32,mp-569989,Nb2C,"{'Nb': 2.0, 'C': 1.0}",0.11054693,7.673756118,"{'G_Reuss': 114.0, 'G_VRH': 117.0, 'G_Voigt': 121.0, 'G_Voigt_Reuss_Hill': 117.0, 'K_Reuss': 228.0, 'K_VRH': 228.0, 'K_Voigt': 228.0, 'K_Voigt_Reuss_Hill': 228.0, 'elastic_anisotropy': 0.29, 'elastic_tensor': [[407.0, 143.0, 122.0, 0.0, 0.0, 0.0], [143.0, 422.0, 130.0, 0.0, 0.0, 0.0], [122.0, 130.0, 430.0, 0.0, 0.0, 0.0], [0.0, 0.0, 0.0, 114.0, 0.0, 0.0], [0.0, 0.0, 0.0, 0.0, 76.0, 0.0], [0.0, 0.0, 0.0, 0.0, 0.0, 124.0]], 'homogeneous_poisson': 0.28, 'poisson_ratio': 0.28, 'universal_anisotropy': 0.29, 'elastic_tensor_original': [[430.358675933507, 121.2815506701463, 130.30158375860205, 0.0, 0.0, 0.0], [123.0242569309993, 407.32311134310623, 142.9854072151474, 0.0, 0.0, 0.0], [129.2925656417647, 142.72641328502755, 422.31997246815075, 0.0, 0.0, 0.0], [1.5496680711831126e-05, 6.28733903145322e-05, -0.00019078683957037058, 123.90610940463341, 0.0, 0.0], [5.225708688700154e-05, 2.8126834407858666e-05, -0.00024846296445028474, 0.0, 114.37623776467046, 0.0], [0.00043174621387620553, 0.0003267596292883098, 0.0002162432755616007, 0.0, 0.0, 76.1091285807108]], 'compliance_tensor': [[2.9, -0.8, -0.6, 0.0, 0.0, 0.0], [-0.8, 2.8, -0.6, -0.0, 0.0, 0.0], [-0.6, -0.6, 2.7, 0.0, 0.0, 0.0], [0.0, -0.0, 0.0, 8.7, 0.0, 0.0], [0.0, 0.0, 0.0, 0.0, 13.1, 0.0], [0.0, 0.0, 0.0, 0.0, 0.0, 8.1]], 'warnings': [], 'nsites': 12}",0,117,228,0.29,0.28,299.52
33,mp-570791,SiC,"{'Si': 1.0, 'C': 1.0}",0.036806852,3.171617123,"{'G_Reuss': 184.0, 'G_VRH': 187.0, 'G_Voigt': 189.0, 'G_Voigt_Reuss_Hill': 187.0, 'K_Reuss': 214.0, 'K_VRH': 214.0, 'K_Voigt': 214.0, 'K_Voigt_Reuss_Hill': 214.0, 'elastic_anisotropy': 0.13, 'elastic_tensor': [[488.0, 104.0, 51.0, 8.0, 0.0, 0.0], [104.0, 488.0, 51.0, -8.0, 0.0, 0.0], [51.0, 51.0, 534.0, 0.0, 0.0, 0.0], [8.0, -8.0, 0.0, 159.0, 0.0, 0.0], [0.0, 0.0, 0.0, 0.0, 159.0, 8.0], [0.0, 0.0, 0.0, 0.0, 8.0, 192.0]], 'homogeneous_poisson': 0.16, 'poisson_ratio': 0.16, 'universal_anisotropy': 0.13, 'elastic_tensor_original': [[489.0270688436468, 103.34955624344512, 50.86081084658511, -8.22374710502761, 0.0, 0.0], [103.71306724145687, 488.3846975788231, 50.678089419681335, 8.234894115226881, 0.0, 0.0], [50.92048334319032, 50.920456345921814, 534.1805300198355, 0.0, 0.0, 0.0], [-8.050505143691005, 8.01167368921472, -0.13054191036258095, 158.86001242468632, 0.0, 0.0], [-0.0005139032685669034, -0.0009422733160161879, -0.000713436671613407, 0.0012797832712667845, 158.8780056863896, -8.106279198837353], [0.0023658773881488635, -0.0015998665312026586, 8.919094456294756e-05, 0.0009845811485178525, -8.005058171786112, 192.00859234320788]], 'compliance_tensor': [[2.2, -0.4, -0.2, -0.1, -0.0, -0.0], [-0.4, 2.2, -0.2, 0.1, 0.0, -0.0], [-0.2, -0.2, 1.9, -0.0, -0.0, 0.0], [-0.1, 0.1, 0.0, 6.3, -0.0, 0.0], [-0.0, 0.0, 0.0, -0.0, 6.3, -0.3], [-0.0, -0.0, 0.0, 0.0, -0.3, 5.2]], 'warnings': [], 'nsites': 38}",0.304171026,187,214,0.13,0.16,433.84
34,mp-570985,SiC,"{'Si': 1.0, 'C': 1.0}",0.036810274,3.171911956,"{'G_Reuss': 185.0, 'G_VRH': 187.0, 'G_Voigt': 189.0, 'G_Voigt_Reuss_Hill': 187.0, 'K_Reuss': 213.0, 'K_VRH': 213.0, 'K_Voigt': 213.0, 'K_Voigt_Reuss_Hill': 213.0, 'elastic_anisotropy': 0.12, 'elastic_tensor': [[488.0, 104.0, 51.0, 1.0, 0.0, 0.0], [104.0, 488.0, 51.0, -1.0, 0.0, 0.0], [51.0, 51.0, 534.0, 0.0, 0.0, 0.0], [1.0, -1.0, 0.0, 160.0, 0.0, 0.0], [0.0, 0.0, 0.0, 0.0, 160.0, 1.0], [0.0, 0.0, 0.0, 0.0, 1.0, 192.0]], 'homogeneous_poisson': 0.16, 'poisson_ratio': 0.16, 'universal_anisotropy': 0.12, 'elastic_tensor_original': [[488.0697965612914, 104.073937379734, 50.686745545763415, -0.02917886217819576, 0.0, 0.0], [104.25352784911843, 487.45948601632506, 50.42861653429619, 0.0009002127160658073, 0.0, 0.0], [50.70319777250265, 50.70322007983472, 534.2647472502445, 0.0, 0.0, 0.0], [0.005380534005595369, -0.001732698421532663, 0.001782763740147181, 159.61770822709235, 0.0, 0.0], [0.0010753577672869706, 0.0008505132887780399, 0.000262238248877265, -0.0008867107938681599, 159.65346889814435, 0.00257579833177573], [-0.011726533283276655, 0.0021518964112103777, -0.0006820133666462448, -0.005307936881615531, -3.7609272130348583, 191.36284534902885]], 'compliance_tensor': [[2.2, -0.4, -0.2, -0.0, -0.0, 0.0], [-0.4, 2.2, -0.2, 0.0, -0.0, 0.0], [-0.2, -0.2, 1.9, -0.0, 0.0, -0.0], [-0.0, 0.0, -0.0, 6.3, 0.0, -0.0], [-0.0, -0.0, 0.0, 0.0, 6.3, -0.0], [0.0, 0.0, -0.0, -0.0, -0.0, 5.2]], 'warnings': [], 'nsites': 54}",0.282435315,187,213,0.12,0.16,433.84
35,mp-576,B13C2,"{'B': 13.0, 'C': 2.0}",0.035511088,2.438647814,"{'G_Reuss': 152.0, 'G_VRH': 159.0, 'G_Voigt': 165.0, 'G_Voigt_Reuss_Hill': 159.0, 'K_Reuss': 221.0, 'K_VRH': 222.0, 'K_Voigt': 223.0, 'K_Voigt_Reuss_Hill': 222.0, 'elastic_anisotropy': 0.45, 'elastic_tensor': [[515.0, 120.0, 73.0, 6.0, 0.0, 0.0], [120.0, 515.0, 73.0, -6.0, 0.0, 0.0], [73.0, 73.0, 452.0, 0.0, 0.0, 0.0], [6.0, -6.0, 0.0, 112.0, 0.0, 0.0], [0.0, 0.0, 0.0, 0.0, 112.0, 6.0], [0.0, 0.0, 0.0, 0.0, 6.0, 198.0]], 'homogeneous_poisson': 0.21, 'poisson_ratio': 0.21, 'universal_anisotropy': 0.45, 'elastic_tensor_original': [[514.3840096151362, 119.75464864506499, 74.09099241834514, -1.9179964468800856, 0.0, 0.0], [119.4837038605511, 514.8087955555028, 73.27427346552791, 0.6987004238958001, 0.0, 0.0], [71.90148180795563, 71.90149270741972, 451.5314130790672, 0.0, 0.0, 0.0], [-9.907536308085403, 7.372920546419675, -1.0133315803668566, 112.20097871298465, 0.0, 0.0], [-0.007585592784666304, -0.001298445429319429, 0.010680169839661913, 0.00042204625663966235, 112.39796240495035, -8.899247319231014], [-0.13383544493442454, 0.10603082407686197, 0.12260114645243603, 0.5156032181254008, -6.970602613934543, 197.52982250694868]], 'compliance_tensor': [[2.1, -0.4, -0.3, -0.1, -0.0, 0.0], [-0.4, 2.1, -0.3, 0.1, 0.0, 0.0], [-0.3, -0.3, 2.3, 0.0, 0.0, -0.0], [-0.1, 0.1, 0.0, 8.9, 0.0, 0.0], [-0.0, 0.0, 0.0, 0.0, 8.9, -0.3], [0.0, 0.0, -0.0, 0.0, -0.3, 5.1]], 'warnings': [], 'nsites': 15}",0,159,222,0.45,0.21,384.78
36,mp-582034,SiC,"{'Si': 1.0, 'C': 1.0}",0.036812671,3.172118513,"{'G_Reuss': 185.0, 'G_VRH': 187.0, 'G_Voigt': 189.0, 'G_Voigt_Reuss_Hill': 187.0, 'K_Reuss': 213.0, 'K_VRH': 213.0, 'K_Voigt': 213.0, 'K_Voigt_Reuss_Hill': 213.0, 'elastic_anisotropy': 0.12, 'elastic_tensor': [[487.0, 104.0, 51.0, -7.0, 0.0, 0.0], [104.0, 487.0, 51.0, 7.0, 0.0, 0.0], [51.0, 51.0, 534.0, 0.0, 0.0, 0.0], [-7.0, 7.0, 0.0, 161.0, 0.0, 0.0], [0.0, 0.0, 0.0, 0.0, 161.0, -7.0], [0.0, 0.0, 0.0, 0.0, -7.0, 191.0]], 'homogeneous_poisson': 0.16, 'poisson_ratio': 0.16, 'universal_anisotropy': 0.12, 'elastic_tensor_original': [[487.7524294038439, 102.74510910578721, 51.10933741657271, 7.748691197159016, 0.0, 0.0], [103.89325916041169, 487.2360256407284, 51.20463433337068, -7.505727180855043, 0.0, 0.0], [50.64814504245748, 50.64809223106843, 533.7574860126678, 0.0, 0.0, 0.0], [7.40324434364014, -7.318568110578981, 0.14595035333529588, 160.91849647357157, 0.0, 0.0], [-0.0028479424343496526, -0.0016571089270227721, 0.002068691040029245, -0.0006381616325011462, 160.89269849516137, 7.363473900396988], [-0.04471728265897087, 0.01992789087039769, -0.011955529969307477, -0.007243485256667851, 7.37132890700365, 190.77264364204416]], 'compliance_tensor': [[2.2, -0.4, -0.2, 0.1, 0.0, -0.0], [-0.4, 2.2, -0.2, -0.1, -0.0, -0.0], [-0.2, -0.2, 1.9, 0.0, 0.0, 0.0], [0.1, -0.1, 0.0, 6.2, -0.0, -0.0], [0.0, -0.0, 0.0, -0.0, 6.2, 0.2], [-0.0, -0.0, 0.0, -0.0, 0.2, 5.2]], 'warnings': [], 'nsites': 42}",0.375179786,187,213,0.12,0.16,433.84
37,mp-7088,Ta2C,"{'Ta': 2.0, 'C': 1.0}",0.112562814,14.7686712,"{'G_Reuss': 131.0, 'G_VRH': 138.0, 'G_Voigt': 146.0, 'G_Voigt_Reuss_Hill': 138.0, 'K_Reuss': 256.0, 'K_VRH': 256.0, 'K_Voigt': 256.0, 'K_Voigt_Reuss_Hill': 256.0, 'elastic_anisotropy': 0.59, 'elastic_tensor': [[464.0, 159.0, 141.0, -45.0, 0.0, 0.0], [159.0, 464.0, 141.0, 45.0, 0.0, 0.0], [141.0, 141.0, 493.0, 0.0, 0.0, 0.0], [-45.0, 45.0, 0.0, 125.0, 0.0, 0.0], [0.0, 0.0, 0.0, 0.0, 125.0, -45.0], [0.0, 0.0, 0.0, 0.0, -45.0, 153.0]], 'homogeneous_poisson': 0.27, 'poisson_ratio': 0.27, 'universal_anisotropy': 0.59, 'elastic_tensor_original': [[460.25689518710584, 161.40879260380578, 142.45351542032142, -46.829377465411014, -1.186703117354039e-05, 4.1507589687647996e-05], [163.36039192256774, 461.162054003999, 141.2675152078112, 47.042143083965705, 0.0, 0.0], [140.4428221020097, 140.44279848408127, 492.9539233362212, 0.0, 0.0, 0.0], [-43.307174398161145, 46.459713235936704, 1.5437178577988664, 124.68268925963717, 0.0, 0.0], [0.042727178832945634, 0.024700120976268194, 0.09540006495587204, -0.15216378377333845, 125.60894452577269, -44.22048753216652], [-0.18888549209424024, -0.054459309370232294, 0.04899325648966771, -0.056400773055066036, -43.929687649665155, 156.17359912132102]], 'compliance_tensor': [[2.8, -0.9, -0.5, 1.3, 0.0, -0.0], [-0.9, 2.8, -0.5, -1.3, -0.0, -0.0], [-0.5, -0.5, 2.3, -0.0, 0.0, 0.0], [1.3, -1.3, -0.0, 8.9, -0.0, -0.0], [0.0, -0.0, -0.0, -0.0, 8.9, 2.6], [-0.0, -0.0, 0.0, -0.0, 2.6, 7.3]], 'warnings': [], 'nsites': 3}",0,138,256,0.59,0.27,350.52
38,mp-723,Cr23C6,"{'Cr': 23.0, 'C': 6.0}",0.274722113,7.167799815,"{'G_Reuss': 138.0, 'G_VRH': 138.0, 'G_Voigt': 138.0, 'G_Voigt_Reuss_Hill': 138.0, 'K_Reuss': 291.0, 'K_VRH': 291.0, 'K_Voigt': 291.0, 'K_Voigt_Reuss_Hill': 291.0, 'elastic_anisotropy': 0.0, 'elastic_tensor': [[477.0, 198.0, 198.0, 0.0, 0.0, 0.0], [198.0, 477.0, 198.0, 0.0, 0.0, 0.0], [198.0, 198.0, 477.0, 0.0, 0.0, 0.0], [0.0, 0.0, 0.0, 137.0, 0.0, 0.0], [0.0, 0.0, 0.0, 0.0, 137.0, 0.0], [0.0, 0.0, 0.0, 0.0, 0.0, 137.0]], 'homogeneous_poisson': 0.3, 'poisson_ratio': 0.3, 'universal_anisotropy': 0.0, 'elastic_tensor_original': [[477.18965646914114, 198.16043485985557, 198.16043485985557, 0.0, 0.0, 0.0], [198.16043485985557, 477.18965646914114, 198.16043485985557, 0.0, 0.0, 0.0], [198.16043485985557, 198.16043485985557, 477.18965646914114, 0.0, 0.0, 0.0], [0.0, 0.0, 0.0, 137.3500281351293, 0.0, 0.0], [0.0, 0.0, 0.0, 0.0, 137.3500281351293, 0.0], [0.0, 0.0, 0.0, 0.0, 0.0, 137.3500281351293]], 'compliance_tensor': [[2.8, -0.8, -0.8, 0.0, -0.0, 0.0], [-0.8, 2.8, -0.8, -0.0, 0.0, -0.0], [-0.8, -0.8, 2.8, -0.0, -0.0, 0.0], [0.0, -0.0, -0.0, 7.3, 0.0, -0.0], [-0.0, 0.0, -0.0, 0.0, 7.3, -0.0], [0.0, -0.0, 0.0, -0.0, -0.0, 7.3]], 'warnings': [], 'nsites': 29}",0,138,291,0,0.3,358.8