,mp_id,Formula,Composition,IPF,Density,Elastic_Tensor,E_above_Hull,G_VRH,K_VRH,Elastic_Anisotropy,poisson_ratio,Y_Modulus
65,mp-3822,SrCO3,"{'Sr': 1.0, 'C': 1.0, 'O': 3.0}",0.517407133,3.635955451,"{'G_Reuss': 29.0, 'G_VRH': 30.0, 'G_Voigt': 30.0, 'G_Voigt_Reuss_Hill': 30.0, 'K_Reuss': 58.0, 'K_VRH': 60.0, 'K_Voigt': 62.0, 'K_Voigt_Reuss_Hill': 60.0, 'elastic_anisotropy': 0.35, 'elastic_tensor': [[76.0, 41.0, 31.0, 0.0, 0.0, 0.0], [41.0, 101.0, 49.0, 0.0, 0.0, 0.0], [31.0, 49.0, 137.0, 0.0, 0.0, 0.0], [0.0, 0.0, 0.0, 33.0, 0.0, 0.0], [0.0, 0.0, 0.0, 0.0, 24.0, 0.0], [0.0, 0.0, 0.0, 0.0, 0.0, 31.0]], 'homogeneous_poisson': 0.29, 'poisson_ratio': 0.29, 'universal_anisotropy': 0.35, 'elastic_tensor_original': [[136.89759532920147, 31.67951662097168, 48.27380830665149, 0.0, 0.0, 0.0], [31.256019299760624, 75.74071921462365, 40.64147367205131, 0.0, 0.0, 0.0], [49.9816642482829, 40.48314136299852, 101.44623865496676, 0.0, 0.0, 0.0], [-0.00045343323556493187, -0.0008687998126705268, -0.0014099830293155694, 31.24042268066858, 0.0, 0.0], [0.006776987700287798, 0.01821161048671471, 0.05902959330215165, 0.0, 32.69437660877954, 0.0], [6.597331434079458e-05, 5.583331726005914e-05, 9.078664053077926e-05, 0.0, 0.0, 23.608179343622353]], 'compliance_tensor': [[17.15675073963969, -5.991357823877485, -1.7936239385576187, 0.0, 1.1741949615824896e-21, 0.0], [-5.991357823877486, 14.023152473597102, -3.6552218286156504, 0.0, -9.589403252319614e-22, 0.0], [-1.7936239385576191, -3.65522182861565, 9.028749650176707, 0.0, -4.499444295144936e-22, 0.0], [0.0, 0.0, 0.0, 30.586299655319525, 0.0, 0.0], [1.1741949615824896e-21, -9.589403252319616e-22, -4.499444295144936e-22, 0.0, 42.358200750882794, 0.0], [0.0, 0.0, 0.0, 0.0, 0.0, 32.009810181563104]], 'warnings': [], 'nsites': 20}",0,30,60,0.35,0.29,77.4
66,mp-4230,Sc3TlC,"{'Sc': 3.0, 'Tl': 1.0, 'C': 1.0}",0.197838909,6.159752464,"{'G_Reuss': 82.0, 'G_VRH': 82.0, 'G_Voigt': 82.0, 'G_Voigt_Reuss_Hill': 82.0, 'K_Reuss': 97.0, 'K_VRH': 97.0, 'K_Voigt': 97.0, 'K_Voigt_Reuss_Hill': 97.0, 'elastic_anisotropy': 0.01, 'elastic_tensor': [[211.0, 40.0, 40.0, 0.0, 0.0, 0.0], [40.0, 211.0, 40.0, 0.0, 0.0, 0.0], [40.0, 40.0, 211.0, 0.0, 0.0, 0.0], [0.0, 0.0, 0.0, 79.0, 0.0, 0.0], [0.0, 0.0, 0.0, 0.0, 79.0, 0.0], [0.0, 0.0, 0.0, 0.0, 0.0, 79.0]], 'homogeneous_poisson': 0.17, 'poisson_ratio': 0.17, 'universal_anisotropy': 0.01, 'elastic_tensor_original': [[211.37812857850304, 39.87787215047716, 39.87787215047716, 0.0, 0.0, 0.0], [39.88679439689458, 211.3848617036168, 39.88679439689458, 0.0, 0.0, 0.0], [39.86816714425049, 39.86816714425049, 211.36877828176455, 0.0, 0.0, 0.0], [-1.6430629314976988e-05, 0.00015345233482758614, -0.0001251739385735757, 79.1289219225545, 0.0, 0.0], [0.00045755205439464787, 0.0006565018906743327, 0.0007466819105942179, 0.0, 79.12896798247901, 0.0], [-0.0003283761861657229, -0.00044781937028163154, -0.0003734792876654157, 0.0, 0.0, 79.12902113556171]], 'compliance_tensor': [[5.0, -0.8, -0.8, -0.0, -0.0, 0.0], [-0.8, 5.0, -0.8, -0.0, -0.0, 0.0], [-0.8, -0.8, 5.0, -0.0, -0.0, -0.0], [-0.0, -0.0, -0.0, 12.6, 0.0, 0.0], [-0.0, -0.0, -0.0, 0.0, 12.6, -0.0], [0.0, 0.0, -0.0, 0.0, -0.0, 12.6]], 'warnings': [], 'nsites': 5}",0,82,97,0.01,0.17,191.88
67,mp-4613,Zr2SnC,"{'Zr': 2.0, 'Sn': 1.0, 'C': 1.0}",0.107345018,7.123121982,"{'G_Reuss': 79.0, 'G_VRH': 80.0, 'G_Voigt': 80.0, 'G_Voigt_Reuss_Hill': 80.0, 'K_Reuss': 127.0, 'K_VRH': 127.0, 'K_Voigt': 128.0, 'K_Voigt_Reuss_Hill': 127.0, 'elastic_anisotropy': 0.08, 'elastic_tensor': [[225.0, 58.0, 89.0, 0.0, 0.0, 0.0], [58.0, 225.0, 89.0, 0.0, 0.0, 0.0], [89.0, 89.0, 229.0, 0.0, 0.0, 0.0], [0.0, 0.0, 0.0, 85.0, 0.0, 0.0], [0.0, 0.0, 0.0, 0.0, 85.0, 0.0], [0.0, 0.0, 0.0, 0.0, 0.0, 84.0]], 'homogeneous_poisson': 0.24, 'poisson_ratio': 0.24, 'universal_anisotropy': 0.08, 'elastic_tensor_original': [[225.8407189057766, 57.32993351553477, 88.47211411382345, 0.0, 0.0, 0.0], [55.16318529423921, 226.7074758399998, 87.71781688621326, 0.0, 0.0, 0.0], [89.72087641843329, 89.72084909937412, 228.56315307524193, 0.0, 0.0, 0.0], [-0.0003591567032551485, -0.000262849735827501, -0.00011065027280010128, 85.37080867866625, 0.0, 0.0], [5.1002756662433404e-05, -4.8170758080537697e-05, -0.0001958167918151121, 0.0, 85.30746817381697, 0.0], [-0.00019705325356860552, -6.48197904489673e-05, -0.00024370306284702422, 0.0, 0.0, 82.34700071209846]], 'compliance_tensor': [[5.3, -0.6, -1.8, -0.0, -0.0, -0.0], [-0.6, 5.3, -1.8, -0.0, -0.0, -0.0], [-1.8, -1.8, 5.8, 0.0, 0.0, 0.0], [-0.0, -0.0, 0.0, 11.7, -0.0, -0.0], [-0.0, -0.0, 0.0, -0.0, 11.7, -0.0], [-0.0, -0.0, 0.0, -0.0, -0.0, 12.0]], 'warnings': [], 'nsites': 8}",0,80,127,0.08,0.24,198.4
68,mp-4798,Sc(AlC)3,"{'Sc': 1.0, 'Al': 3.0, 'C': 3.0}",0.086512425,3.272985015,"{'G_Reuss': 138.0, 'G_VRH': 138.0, 'G_Voigt': 139.0, 'G_Voigt_Reuss_Hill': 138.0, 'K_Reuss': 165.0, 'K_VRH': 166.0, 'K_Voigt': 168.0, 'K_Voigt_Reuss_Hill': 166.0, 'elastic_anisotropy': 0.04, 'elastic_tensor': [[368.0, 101.0, 67.0, 0.0, 0.0, 0.0], [101.0, 368.0, 67.0, 0.0, 0.0, 0.0], [67.0, 67.0, 305.0, 0.0, 0.0, 0.0], [0.0, 0.0, 0.0, 146.0, 0.0, 0.0], [0.0, 0.0, 0.0, 0.0, 146.0, 0.0], [0.0, 0.0, 0.0, 0.0, 0.0, 133.0]], 'homogeneous_poisson': 0.17, 'poisson_ratio': 0.17, 'universal_anisotropy': 0.04, 'elastic_tensor_original': [[368.34186677593834, 100.01414055148625, 66.14832995810582, 0.0, 0.0, -2.935418595182696e-05], [100.1678435036226, 368.2750430278209, 66.13307997338187, 0.0, 0.0, -6.329494390791294e-05], [67.49547740105267, 67.49550337936928, 305.28646530127395, 0.0, 0.0, -1.1579246010200362e-05], [-1.2346826647453302e-05, 4.145664626349383e-05, -2.71235268088701e-05, 145.6701355949647, -2.503332791108075e-05, 0.0], [-3.02300136544435e-05, 4.12133519493124e-05, -9.200004154994742e-06, 4.666668774611621e-08, 145.67081966650898, 0.0], [-0.023910662112299353, -0.01041274979028168, -0.03873941516709716, 0.0, 0.0, 132.57960285149]], 'compliance_tensor': [[3.0, -0.7, -0.5, 0.0, 0.0, 0.0], [-0.7, 3.0, -0.5, -0.0, -0.0, 0.0], [-0.5, -0.5, 3.5, 0.0, -0.0, -0.0], [0.0, -0.0, 0.0, 6.9, 0.0, -0.0], [0.0, -0.0, -0.0, 0.0, 6.9, 0.0], [0.0, 0.0, -0.0, -0.0, 0.0, 7.5]], 'warnings': [], 'nsites': 14}",0,138,166,0.04,0.17,322.92
69,mp-5025,Zr2CS,"{'Zr': 2.0, 'C': 1.0, 'S': 1.0}",0.132640451,6.013909005,"{'G_Reuss': 111.0, 'G_VRH': 112.0, 'G_Voigt': 113.0, 'G_Voigt_Reuss_Hill': 112.0, 'K_Reuss': 165.0, 'K_VRH': 165.0, 'K_Voigt': 165.0, 'K_Voigt_Reuss_Hill': 165.0, 'elastic_anisotropy': 0.11, 'elastic_tensor': [[290.0, 91.0, 103.0, 0.0, 0.0, 0.0], [91.0, 290.0, 103.0, 0.0, 0.0, 0.0], [103.0, 103.0, 313.0, 0.0, 0.0, 0.0], [0.0, 0.0, 0.0, 133.0, 0.0, 0.0], [0.0, 0.0, 0.0, 0.0, 133.0, 0.0], [0.0, 0.0, 0.0, 0.0, 0.0, 99.0]], 'homogeneous_poisson': 0.22, 'poisson_ratio': 0.22, 'universal_anisotropy': 0.11, 'elastic_tensor_original': [[290.20560650010185, 91.6390317109781, 101.76777658543266, 0.0, 0.0, 0.0], [91.048317303486, 289.987765327606, 102.13701161621216, 0.0, 0.0, 0.0], [103.41093717760843, 103.41093055780138, 313.49916447655215, 0.0, 0.0, 0.0], [5.546674235463786e-05, 0.00012959686245029065, 3.02835224140392e-05, 133.13129228594218, 0.0, 0.0], [3.4403305214132555e-05, -0.00010388324842635217, 0.0001723065258320417, 0.0, 133.61732203225495, 0.0], [-2.538331345943847e-05, -0.00025150980307156044, -4.581329746376556e-05, 0.0, 0.0, 99.09330959482163]], 'compliance_tensor': [[4.1, -0.9, -1.0, 0.0, 0.0, 0.0], [-0.9, 4.1, -1.0, 0.0, 0.0, 0.0], [-1.0, -1.0, 3.9, -0.0, -0.0, -0.0], [0.0, 0.0, -0.0, 7.5, 0.0, 0.0], [0.0, 0.0, -0.0, 0.0, 7.5, 0.0], [0.0, 0.0, -0.0, 0.0, 0.0, 10.1]], 'warnings': [], 'nsites': 8}",0,112,165,0.11,0.22,273.28
70,mp-5106,TbCoC2,"{'Tb': 1.0, 'Co': 1.0, 'C': 2.0}",0.124743731,8.231613414,"{'G_Reuss': 93.0, 'G_VRH': 95.0, 'G_Voigt': 98.0, 'G_Voigt_Reuss_Hill': 95.0, 'K_Reuss': 161.0, 'K_VRH': 168.0, 'K_Voigt': 176.0, 'K_Voigt_Reuss_Hill': 168.0, 'elastic_anisotropy': 0.4, 'elastic_tensor': [[382.0, 163.0, 76.0, 0.0, 0.0, 0.0], [163.0, 315.0, 95.0, 0.0, 0.0, 0.0], [76.0, 95.0, 220.0, 0.0, 0.0, 0.0], [0.0, 0.0, 0.0, 83.0, 0.0, 0.0], [0.0, 0.0, 0.0, 0.0, 81.0, 0.0], [0.0, 0.0, 0.0, 0.0, 0.0, 132.0]], 'homogeneous_poisson': 0.26, 'poisson_ratio': 0.26, 'universal_anisotropy': 0.4, 'elastic_tensor_original': [[382.14003901109885, 161.8951019130475, 75.24836561337221, 0.0, 0.0, 0.0], [164.19597005463314, 315.43642503486933, 94.6495214947167, 0.0, 0.0, 0.0], [76.81980646683323, 94.78326367278521, 219.8384999194626, 0.0, 0.0, 0.0], [4.8276785045042844e-05, -2.068323792243705e-05, 3.944343781298604e-05, 83.07388453196194, 0.0, 0.0], [2.6726568152319524e-05, 6.433329277236406e-05, 6.683338279145083e-05, 0.0, 81.48431270242962, 0.0], [-9.20025450722586e-07, -4.302672823174958e-05, -3.2426669556769184e-05, 0.0, 0.0, 132.24117105774712]], 'compliance_tensor': [[3.4, -1.6, -0.5, 0.0, 0.0, 0.0], [-1.6, 4.4, -1.3, 0.0, 0.0, 0.0], [-0.5, -1.3, 5.3, 0.0, 0.0, 0.0], [0.0, 0.0, 0.0, 12.0, 0.0, 0.0], [0.0, 0.0, 0.0, 0.0, 12.3, 0.0], [0.0, 0.0, 0.0, 0.0, 0.0, 7.6]], 'warnings': ['Contains a rare earth element'], 'nsites': 4}",0,95,168,0.4,0.26,239.4
71,mp-5348,MgCO3,"{'Mg': 1.0, 'C': 1.0, 'O': 3.0}",0.578004868,2.898973036,"{'G_Reuss': 59.0, 'G_VRH': 63.0, 'G_Voigt': 67.0, 'G_Voigt_Reuss_Hill': 63.0, 'K_Reuss': 102.0, 'K_VRH': 105.0, 'K_Voigt': 109.0, 'K_Voigt_Reuss_Hill': 105.0, 'elastic_anisotropy': 0.71, 'elastic_tensor': [[240.0, 71.0, 54.0, 16.0, 0.0, 0.0], [71.0, 240.0, 54.0, -16.0, 0.0, 0.0], [54.0, 54.0, 143.0, 0.0, 0.0, 0.0], [16.0, -16.0, 0.0, 50.0, 0.0, 0.0], [0.0, 0.0, 0.0, 0.0, 50.0, 16.0], [0.0, 0.0, 0.0, 0.0, 16.0, 85.0]], 'homogeneous_poisson': 0.25, 'poisson_ratio': 0.25, 'universal_anisotropy': 0.71, 'elastic_tensor_original': [[239.7559696061567, 70.10158124113535, 53.50344551040792, -16.07961264131689, 0.0, 0.0], [70.73010532941593, 241.0672338291054, 53.372900764543665, 16.169853125690622, 0.0, 0.0], [54.91621911755054, 54.91621519788902, 143.15154673620845, 0.0, 0.0, 0.0], [-16.42398232049989, 15.911275786318738, -0.177900225574467, 50.336320841758685, 0.0, 0.0], [1.1953322887580841e-05, 1.0066657872125181e-06, -2.8799974827347824e-06, -9.299991872714676e-06, 50.335888054625904, -16.118093211009022], [-1.687665251654256e-05, 3.664663593880967e-05, -1.2806655928059415e-05, 6.273328073105981e-06, -16.380851121534512, 84.73027256809387]], 'compliance_tensor': [[5.0, -1.3, -1.4, -2.0, 0.0, -0.0], [-1.3, 5.0, -1.4, 2.0, 0.0, -0.0], [-1.4, -1.4, 8.0, 0.0, -0.0, 0.0], [-2.0, 2.0, 0.0, 21.2, -0.0, 0.0], [-0.0, 0.0, -0.0, -0.0, 21.2, -4.0], [-0.0, -0.0, 0.0, 0.0, -4.0, 12.6]], 'warnings': [], 'nsites': 10}",0,63,105,0.71,0.25,157.5
72,mp-541989,Na2CN2,"{'Na': 2.0, 'C': 1.0, 'N': 2.0}",0.230019998,2.149228575,"{'G_Reuss': 12.0, 'G_VRH': 18.0, 'G_Voigt': 23.0, 'G_Voigt_Reuss_Hill': 18.0, 'K_Reuss': 37.0, 'K_VRH': 41.0, 'K_Voigt': 44.0, 'K_Voigt_Reuss_Hill': 41.0, 'elastic_anisotropy': 4.84, 'elastic_tensor': [[117.0, 16.0, 27.0, 0.0, -29.0, 0.0], [16.0, 73.0, 26.0, 0.0, -1.0, 0.0], [27.0, 26.0, 72.0, 0.0, 2.0, 0.0], [0.0, 0.0, 0.0, 29.0, 0.0, 0.0], [-29.0, -1.0, 2.0, 0.0, 14.0, 0.0], [0.0, 0.0, 0.0, 0.0, 0.0, 9.0]], 'homogeneous_poisson': 0.31, 'poisson_ratio': 0.31, 'universal_anisotropy': 4.84, 'elastic_tensor_original': [[72.93612570315713, 26.323823766933636, 16.853102668010894, -0.9781862002413371, 0.0, 0.0], [26.44528045878528, 71.66367386175982, 28.68926965169579, 1.237526764507519, 0.0, 0.0], [15.623397120707544, 25.55324458714651, 116.02235211209171, -29.00609057184665, 0.0, 0.0], [-0.7619988733971299, 2.740208797502154, -29.897899882127447, 14.699992002517556, 0.0, 0.0], [-0.024501826542724866, -0.016364041000250445, 0.012894387655320434, -0.040035848337608995, 8.76837540210091, 0.31225258439256803], [9.013323876129064e-06, 1.0773322029183815e-05, 2.6269972436028032e-05, -8.373324547512794e-06, 0.09187564359868013, 29.041841734261087]], 'compliance_tensor': [[22.7, -1.1, -9.4, 0.0, 47.1, 0.0], [-1.1, 15.9, -5.4, 0.0, -0.4, 0.0], [-9.4, -5.4, 20.0, 0.0, -21.9, 0.0], [0.0, 0.0, 0.0, 34.4, 0.0, -0.5], [47.1, -0.4, -21.9, 0.0, 167.4, 0.0], [0.0, 0.0, 0.0, -0.5, 0.0, 114.1]], 'warnings': [], 'nsites': 5}",0,18,41,4.84,0.31,47.16
73,mp-5659,Ti3SiC2,"{'Ti': 3.0, 'Si': 1.0, 'C': 2.0}",0.119089033,4.474908098,"{'G_Reuss': 138.0, 'G_VRH': 139.0, 'G_Voigt': 139.0, 'G_Voigt_Reuss_Hill': 139.0, 'K_Reuss': 184.0, 'K_VRH': 184.0, 'K_Voigt': 184.0, 'K_Voigt_Reuss_Hill': 184.0, 'elastic_anisotropy': 0.02, 'elastic_tensor': [[362.0, 90.0, 101.0, 0.0, 0.0, 0.0], [90.0, 362.0, 101.0, 0.0, 0.0, 0.0], [101.0, 101.0, 350.0, 0.0, 0.0, 0.0], [0.0, 0.0, 0.0, 149.0, 0.0, 0.0], [0.0, 0.0, 0.0, 0.0, 149.0, 0.0], [0.0, 0.0, 0.0, 0.0, 0.0, 136.0]], 'homogeneous_poisson': 0.2, 'poisson_ratio': 0.2, 'universal_anisotropy': 0.02, 'elastic_tensor_original': [[361.9945167968505, 89.3096846062892, 101.00652702523148, 0.0, 0.0, 1.1754643366635747e-05], [89.4736541661236, 362.2613495497261, 101.48619626127028, 0.0, 0.0, 0.0], [100.70741145500061, 100.70734282081443, 349.634473573582, 0.0, 0.0, 0.0], [4.952657484076188e-05, 9.018022959585975e-05, -6.555309381459256e-05, 149.02723750646427, 0.0, 0.0], [-9.564980018976836e-05, -7.351984642112866e-05, 7.639984043705888e-06, -1.133330965878895e-07, 149.21106667115106, 0.0], [0.025698560510166304, 0.061262807200611225, 0.029523184611795834, 0.0, 0.0, 135.52442816244903]], 'compliance_tensor': [[3.1, -0.6, -0.7, 0.0, 0.0, 0.0], [-0.6, 3.1, -0.7, -0.0, -0.0, 0.0], [-0.7, -0.7, 3.3, 0.0, -0.0, -0.0], [-0.0, -0.0, 0.0, 6.7, 0.0, 0.0], [0.0, -0.0, -0.0, 0.0, 6.7, 0.0], [0.0, 0.0, -0.0, -0.0, 0.0, 7.4]], 'warnings': [], 'nsites': 12}",0,139,184,0.02,0.2,333.6
74,mp-570784,Hf2Al3C4,"{'Hf': 2.0, 'Al': 3.0, 'C': 4.0}",0.088639186,7.559589082,"{'G_Reuss': 156.0, 'G_VRH': 156.0, 'G_Voigt': 157.0, 'G_Voigt_Reuss_Hill': 156.0, 'K_Reuss': 196.0, 'K_VRH': 197.0, 'K_Voigt': 198.0, 'K_Voigt_Reuss_Hill': 197.0, 'elastic_anisotropy': 0.04, 'elastic_tensor': [[418.0, 118.0, 90.0, 0.0, 0.0, 0.0], [118.0, 418.0, 90.0, 0.0, 0.0, 0.0], [90.0, 90.0, 351.0, 0.0, 0.0, 0.0], [0.0, 0.0, 0.0, 169.0, 0.0, 0.0], [0.0, 0.0, 0.0, 0.0, 169.0, 0.0], [0.0, 0.0, 0.0, 0.0, 0.0, 150.0]], 'homogeneous_poisson': 0.19, 'poisson_ratio': 0.19, 'universal_anisotropy': 0.04, 'elastic_tensor_original': [[418.2269960994469, 117.3552558192546, 89.28210268284123, 0.0, 0.0, 2.027922177071269e-05], [117.14006904384104, 418.5861091224108, 89.82641106275622, 0.0, 0.0, 7.245494626036735e-05], [89.78628934546967, 89.78624898776049, 350.7264077307992, 0.0, 0.0, 1.5539199511024765e-05], [-0.009384191087398438, 0.013337516279278082, -0.0006464305655222697, 169.33509835162968, 2.9320017744238937e-05, 6.666678398448381e-09], [0.002267188591324867, -0.032554960071839716, -0.006540729685976331, -4.6666580971171824e-07, 169.30321327104642, 0.0], [-0.02861456236890796, 0.024531476422808125, 0.02801749718298204, 0.0, 0.0, 149.20883046429748]], 'compliance_tensor': [[2.7, -0.6, -0.5, -0.0, 0.0, -0.0], [-0.6, 2.7, -0.5, 0.0, -0.0, -0.0], [-0.5, -0.5, 3.1, -0.0, 0.0, 0.0], [0.0, -0.0, -0.0, 5.9, -0.0, -0.0], [0.0, -0.0, 0.0, -0.0, 5.9, -0.0], [-0.0, -0.0, 0.0, -0.0, -0.0, 6.7]], 'warnings': [], 'nsites': 18}",0,156,197,0.04,0.19,371.28
75,mp-615314,ScCoC2,"{'Sc': 1.0, 'Co': 1.0, 'C': 2.0}",0.123782497,5.227342152,"{'G_Reuss': 96.0, 'G_VRH': 103.0, 'G_Voigt': 109.0, 'G_Voigt_Reuss_Hill': 103.0, 'K_Reuss': 200.0, 'K_VRH': 201.0, 'K_Voigt': 201.0, 'K_Voigt_Reuss_Hill': 201.0, 'elastic_anisotropy': 0.67, 'elastic_tensor': [[325.0, 142.0, 116.0, 0.0, 0.0, 0.0], [142.0, 325.0, 116.0, 0.0, 0.0, 0.0], [116.0, 116.0, 413.0, 0.0, 0.0, 0.0], [0.0, 0.0, 0.0, 72.0, 0.0, 0.0], [0.0, 0.0, 0.0, 0.0, 72.0, 0.0], [0.0, 0.0, 0.0, 0.0, 0.0, 173.0]], 'homogeneous_poisson': 0.28, 'poisson_ratio': 0.28, 'universal_anisotropy': 0.67, 'elastic_tensor_original': [[325.18431519099806, 141.75154061198063, 114.97527980927958, 0.0, 0.0, 0.0], [141.75047399181176, 325.1833949907698, 114.97342065588525, 0.0, 0.0, 0.0], [117.00417310790229, 117.00417310790229, 412.65145477679823, 0.0, 0.0, 0.0], [0.0002391164912331043, 6.706666020098687e-05, 3.533639746716001e-05, 71.7548030507749, 0.0, 0.0], [-5.7613388390215055e-05, 7.781320762500743e-05, -0.00021669330133618548, 0.0, 71.75461719378225, 0.0], [-3.78763179652499e-05, 8.670355060852979e-05, 3.989671371943071e-05, 0.0, 0.0, 172.77026734919608]], 'compliance_tensor': [[4.0, -1.5, -0.7, 0.0, -0.0, -0.0], [-1.5, 4.0, -0.7, -0.0, 0.0, 0.0], [-0.7, -0.7, 2.8, -0.0, 0.0, -0.0], [0.0, -0.0, -0.0, 13.9, -0.0, -0.0], [-0.0, 0.0, 0.0, -0.0, 13.9, 0.0], [-0.0, 0.0, -0.0, -0.0, 0.0, 5.8]], 'warnings': [], 'nsites': 8}",0,103,201,0.67,0.28,263.68
76,mp-631,TiC,"{'Ti': 1.0, 'C': 1.0}",0.132548146,4.879906981,"{'G_Reuss': 175.0, 'G_VRH': 176.0, 'G_Voigt': 176.0, 'G_Voigt_Reuss_Hill': 176.0, 'K_Reuss': 253.0, 'K_VRH': 253.0, 'K_Voigt': 253.0, 'K_Voigt_Reuss_Hill': 253.0, 'elastic_anisotropy': 0.02, 'elastic_tensor': [[505.0, 126.0, 126.0, 0.0, 0.0, 0.0], [126.0, 505.0, 126.0, 0.0, 0.0, 0.0], [126.0, 126.0, 505.0, 0.0, 0.0, 0.0], [0.0, 0.0, 0.0, 167.0, 0.0, 0.0], [0.0, 0.0, 0.0, 0.0, 167.0, 0.0], [0.0, 0.0, 0.0, 0.0, 0.0, 167.0]], 'homogeneous_poisson': 0.22, 'poisson_ratio': 0.22, 'universal_anisotropy': 0.02, 'elastic_tensor_original': [[504.6777468823636, 126.43075684746762, 126.43075684746762, 0.0, 0.0, 0.0], [126.48396753054534, 505.0883012893613, 126.48396753054534, 0.0, 0.0, 0.0], [126.49835684881447, 126.49835684881447, 505.1131898767262, 0.0, 0.0, 0.0], [-0.0002845563376463759, -9.515988996987364e-05, -0.0006090759624186674, 167.09711378606954, 0.0, 0.0], [-0.0002789063441788917, 0.0003282362871409642, 0.000524419393635603, 0.0, 167.0970940960923, 0.0], [0.0008235090478115664, 8.462323548679126e-05, 0.000774445771208049, 0.0, 0.0, 167.09733248915003]], 'compliance_tensor': [[2.2, -0.4, -0.4, -0.0, -0.0, 0.0], [-0.4, 2.2, -0.4, 0.0, -0.0, -0.0], [-0.4, -0.4, 2.2, -0.0, 0.0, -0.0], [-0.0, 0.0, -0.0, 6.0, -0.0, -0.0], [-0.0, -0.0, 0.0, -0.0, 6.0, -0.0], [0.0, -0.0, -0.0, -0.0, -0.0, 6.0]], 'warnings': [], 'nsites': 2}",0,176,253,0.02,0.22,429.44
77,mp-692,Tb2C,"{'Tb': 2.0, 'C': 1.0}",0.114480604,7.804876643,"{'G_Reuss': 21.0, 'G_VRH': 27.0, 'G_Voigt': 33.0, 'G_Voigt_Reuss_Hill': 27.0, 'K_Reuss': 61.0, 'K_VRH': 61.0, 'K_Voigt': 62.0, 'K_Voigt_Reuss_Hill': 61.0, 'elastic_anisotropy': 2.8, 'elastic_tensor': [[135.0, 41.0, 25.0, 0.0, 0.0, 0.0], [41.0, 135.0, 25.0, -0.0, 0.0, 0.0], [25.0, 25.0, 107.0, 0.0, 0.0, 0.0], [0.0, -0.0, 0.0, 12.0, 0.0, 0.0], [0.0, 0.0, 0.0, 0.0, 12.0, 0.0], [0.0, 0.0, 0.0, 0.0, 0.0, 47.0]], 'homogeneous_poisson': 0.31, 'poisson_ratio': 0.31, 'universal_anisotropy': 2.8, 'elastic_tensor_original': [[134.96282245401838, 41.24656818765778, 28.53342829894248, 2.600505731991315, 0.0, 0.0], [40.121041031482335, 136.378752035903, 28.586746467516427, -2.002213435004448, 0.0, 0.0], [21.5215961428651, 21.521625742870523, 106.89473598365547, 5.800001062589485e-06, 0.0, 0.0], [-0.6965442160541694, 1.392060635921119, 1.6321805451566505, 11.734680068265854, 0.0, 0.0], [0.0, 0.0, 0.0, 0.0, 11.737540641723498, -0.9786635764407015], [0.0, 0.0, 0.0, 0.0, 0.0031140813414613356, 46.83900015642585]], 'compliance_tensor': [[8.3, -2.3, -1.4, -0.1, -0.0, 0.0], [-2.3, 8.3, -1.4, 0.1, -0.0, -0.0], [-1.4, -1.4, 10.0, -0.0, -0.0, 0.0], [-0.1, 0.1, -0.0, 85.2, 0.0, -0.0], [-0.0, 0.0, -0.0, 0.0, 85.2, -0.1], [0.0, -0.0, -0.0, -0.0, -0.1, 21.2]], 'warnings': ['Contains a rare earth element'], 'nsites': 3}",0,27,61,2.8,0.31,70.74