,mp_id,Formula,Composition,IPF,Density,Elastic_Tensor,E_above_Hull,G_VRH,K_VRH,Elastic_Anisotropy,poisson_ratio,Y_Modulus
220,mp-6223,DyNi2B2C,"{'Dy': 1.0, 'Ni': 2.0, 'B': 2.0, 'C': 1.0}",0.155905919,8.000363563,"{'G_Reuss': 68.0, 'G_VRH': 71.0, 'G_Voigt': 75.0, 'G_Voigt_Reuss_Hill': 71.0, 'K_Reuss': 194.0, 'K_VRH': 194.0, 'K_Voigt': 195.0, 'K_Voigt_Reuss_Hill': 194.0, 'elastic_anisotropy': 0.51, 'elastic_tensor': [[295.0, 157.0, 150.0, 0.0, 0.0, 0.0], [157.0, 295.0, 150.0, 0.0, 0.0, 0.0], [150.0, 150.0, 252.0, 0.0, 0.0, 0.0], [0.0, 0.0, 0.0, 58.0, 0.0, 0.0], [0.0, 0.0, 0.0, 0.0, 58.0, 0.0], [0.0, 0.0, 0.0, 0.0, 0.0, 129.0]], 'homogeneous_poisson': 0.34, 'poisson_ratio': 0.34, 'universal_anisotropy': 0.51, 'elastic_tensor_original': [[294.5812124469281, 156.7606800030869, 142.59831813701027, -1.3799839677746855e-05, 0.0, 0.0], [156.7606800030869, 294.5812124469281, 142.59831813701027, 0.0, 1.379983967828964e-05, 0.0], [157.54633063610703, 157.54633063610703, 252.21216868610918, -2.419956318980108e-05, -2.419956318980108e-05, 0.0], [0.0, 0.0, 0.0, 58.34970652714141, 2.000004011277497e-07, 0.0], [0.0, 0.0, 0.0, -2.0000040112412928e-07, 58.34970652714141, 0.0], [1.2887835123882263, -1.2887835123882223, 0.0, -2.599973193816065e-06, 0.0, 128.87031842164197]], 'compliance_tensor': [[5.5, -1.8, -2.2, 0.0, -0.0, -0.0], [-1.8, 5.5, -2.2, -0.0, 0.0, -0.0], [-2.2, -2.2, 6.6, -0.0, -0.0, 0.0], [0.0, -0.0, -0.0, 17.1, 0.0, -0.0], [-0.0, 0.0, -0.0, 0.0, 17.1, -0.0], [-0.0, -0.0, 0.0, -0.0, -0.0, 7.8]], 'warnings': ['Contains a rare earth element'], 'nsites': 6}",0,71,194,0.51,0.34,190.28
221,mp-6633,NaCSN,"{'Na': 1.0, 'C': 1.0, 'S': 1.0, 'N': 1.0}",0.132479553,1.689979431,"{'G_Reuss': 7.0, 'G_VRH': 8.0, 'G_Voigt': 8.0, 'G_Voigt_Reuss_Hill': 8.0, 'K_Reuss': 17.0, 'K_VRH': 18.0, 'K_Voigt': 18.0, 'K_Voigt_Reuss_Hill': 18.0, 'elastic_anisotropy': 0.43, 'elastic_tensor': [[33.0, 17.0, 11.0, 0.0, 0.0, 0.0], [17.0, 32.0, 10.0, 0.0, 0.0, 0.0], [11.0, 10.0, 24.0, 0.0, 0.0, 0.0], [0.0, 0.0, 0.0, 7.0, 0.0, 0.0], [0.0, 0.0, 0.0, 0.0, 5.0, 0.0], [0.0, 0.0, 0.0, 0.0, 0.0, 10.0]], 'homogeneous_poisson': 0.31, 'poisson_ratio': 0.31, 'universal_anisotropy': 0.43, 'elastic_tensor_original': [[24.282517902126386, 11.875533232732582, 10.144920749378883, 0.0, 0.0, 0.0], [9.511168146191837, 33.25852631767066, 15.208220472861909, 0.0, 0.0, 0.0], [9.596009520882394, 18.829608661317025, 31.89426887833093, 0.0, 0.0, 0.0], [-0.054402054141157064, -0.0513556853940494, -0.03607743634342711, 10.299369659540535, 0.0, 0.0], [-0.017665590929498796, -0.021143001165024933, -0.0475804309469087, 0.0, 6.898020298319318, 0.0], [-0.018711270427672698, 0.26411292411703274, 0.08906751936743046, 0.0, 0.0, 4.987300988326101]], 'compliance_tensor': [[43.9, -19.9, -11.2, -0.0, 0.0, 0.0], [-19.9, 44.9, -9.5, -0.0, 0.0, 0.0], [-11.2, -9.5, 50.0, 0.0, 0.0, 0.0], [-0.0, -0.0, 0.0, 145.0, 0.0, 0.0], [0.0, 0.0, 0.0, 0.0, 200.5, 0.0], [0.0, 0.0, 0.0, 0.0, 0.0, 97.1]], 'warnings': [], 'nsites': 16}",0,8,18,0.43,0.31,20.96
222,mp-866650,La2Si4CN6,"{'La': 2.0, 'Si': 4.0, 'C': 1.0, 'N': 6.0}",0.137653659,4.934478017,"{'G_Reuss': 56.0, 'G_VRH': 69.0, 'G_Voigt': 82.0, 'G_Voigt_Reuss_Hill': 69.0, 'K_Reuss': 31.0, 'K_VRH': 56.0, 'K_Voigt': 81.0, 'K_Voigt_Reuss_Hill': 56.0, 'elastic_anisotropy': 3.89, 'elastic_tensor': [[246.0, 16.0, 71.0, 0.0, 0.0, 0.0], [16.0, 38.0, -8.0, 0.0, 0.0, 0.0], [71.0, -8.0, 284.0, 0.0, 0.0, 0.0], [0.0, 0.0, 0.0, 94.0, 0.0, 0.0], [0.0, 0.0, 0.0, 0.0, 59.0, 0.0], [0.0, 0.0, 0.0, 0.0, 0.0, 96.0]], 'homogeneous_poisson': 0.06, 'poisson_ratio': 0.06, 'universal_anisotropy': 3.89, 'elastic_tensor_original': [[284.02226499615807, 70.83435087982495, 83.28797605802517, 0.0, 0.0, 0.0], [71.49136764546024, 246.42447511953748, 99.14519411593707, 0.0, 0.0, 0.0], [-98.71461751246507, -67.53850433028255, 37.80851278429329, 0.0, 0.0, 0.0], [-0.019512962475533736, -0.028050449634633302, 0.0033459247886215866, 95.9220107537644, 0.0, 0.0], [0.0, 0.0, 0.0, 0.0, 94.28010557041176, 0.0], [-0.005012197347999094, 0.013681384291836306, 0.024407789550129837, 0.0, 0.0, 58.91776917190483]], 'compliance_tensor': [[4.5, -2.1, -1.2, 0.0, 0.0, 0.0], [-2.1, 27.6, 1.3, 0.0, -0.0, 0.0], [-1.2, 1.3, 3.9, 0.0, -0.0, 0.0], [0.0, 0.0, 0.0, 10.6, 0.0, 0.0], [0.0, -0.0, -0.0, 0.0, 17.0, 0.0], [0.0, 0.0, 0.0, 0.0, 0.0, 10.4]], 'warnings': ['Contains a rare earth element'], 'nsites': 52}",0,69,56,3.89,0.06,146.28
223,mp-9211,Tm2Fe2Si2C,"{'Tm': 2.0, 'Fe': 2.0, 'Si': 2.0, 'C': 1.0}",0.168511418,8.221256349,"{'G_Reuss': 82.0, 'G_VRH': 86.0, 'G_Voigt': 89.0, 'G_Voigt_Reuss_Hill': 86.0, 'K_Reuss': 134.0, 'K_VRH': 136.0, 'K_Voigt': 137.0, 'K_Voigt_Reuss_Hill': 136.0, 'elastic_anisotropy': 0.46, 'elastic_tensor': [[239.0, 95.0, 71.0, 0.0, -43.0, 0.0], [95.0, 270.0, 85.0, 0.0, 12.0, 0.0], [71.0, 85.0, 221.0, 0.0, 12.0, 0.0], [0.0, 0.0, 0.0, 97.0, 0.0, 19.0], [-43.0, 12.0, 12.0, 0.0, 96.0, 0.0], [0.0, 0.0, 0.0, 19.0, 0.0, 93.0]], 'homogeneous_poisson': 0.24, 'poisson_ratio': 0.24, 'universal_anisotropy': 0.46, 'elastic_tensor_original': [[239.18399464107083, 101.21457676440832, 72.50745218327225, 0.0, -40.93235568413532, 0.0], [87.86784466598576, 269.95465453986236, 82.60150353251996, -1.599960484649619e-06, 12.88465037871945, -1.0799733271384928e-05], [69.47278892153503, 86.68905516673394, 221.21133742851376, 0.0, 10.887225950823222, 0.0], [0.0, 4.6190652364242956e-08, 0.0, 96.89398469054473, 0.0, 18.701613974212293], [-44.414616573367745, 10.350091727182654, 13.122992948684601, 0.0, 96.39777833684118, 0.0], [0.0, 2.290357703376881e-07, 0.0, 18.36632482828161, 0.0, 92.70985965955025]], 'compliance_tensor': [[5.8, -1.7, -1.4, 0.0, 2.9, -0.0], [-1.7, 4.7, -1.2, 0.0, -1.2, -0.0], [-1.4, -1.2, 5.5, 0.0, -1.1, 0.0], [0.0, 0.0, 0.0, 10.7, -0.0, -2.1], [2.9, -1.2, -1.1, -0.0, 12.0, 0.0], [-0.0, -0.0, 0.0, -2.1, 0.0, 11.2]], 'warnings': ['Contains a rare earth element'], 'nsites': 7}",0,86,136,0.46,0.24,213.28
224,mp-1025123,UNi2B2C,"{'U': 1.0, 'Ni': 2.0, 'B': 2.0, 'C': 1.0}",0.127363215,10.07711837,"{'G_Reuss': 82.0, 'G_VRH': 93.0, 'G_Voigt': 103.0, 'G_Voigt_Reuss_Hill': 93.0, 'K_Reuss': 208.0, 'K_VRH': 209.0, 'K_Voigt': 209.0, 'K_Voigt_Reuss_Hill': 209.0, 'elastic_anisotropy': 1.25, 'elastic_tensor': [[297.0, 218.0, 130.0, 0.0, 0.0, 0.0], [218.0, 297.0, 130.0, 0.0, 0.0, 0.0], [130.0, 130.0, 334.0, 0.0, 0.0, 0.0], [0.0, 0.0, 0.0, 98.0, 0.0, 0.0], [0.0, 0.0, 0.0, 0.0, 98.0, 0.0], [0.0, 0.0, 0.0, 0.0, 0.0, 167.0]], 'homogeneous_poisson': 0.31, 'poisson_ratio': 0.31, 'universal_anisotropy': 1.25, 'elastic_tensor_original': [[297.42842102216923, 218.49672991029556, 117.90383826310318, 0.0, -1.1200231507908114e-05, 0.0], [218.49672991029968, 297.4284210221693, 117.90383826310318, -1.1200231515246147e-05, -2.2108300645264745e-05, 0.0], [141.28561270824525, 141.28561270824525, 334.09468643415306, 0.0, 0.0, 0.0], [0.0, -1.839393182167883e-05, 0.0, 98.09492835016539, -7.884091450617344e-07, -9.196978132212805e-06], [-1.8393931827547163e-05, 0.0, 0.0, 7.884091450620003e-07, 98.09492835016535, -9.196953284643784e-06], [1.6743276435995025, -1.674327643591419, 0.0, 0.0, -1.3448541141556828e-06, 167.4231150327618]], 'compliance_tensor': [[7.5, -5.1, -0.9, -0.0, 0.0, 0.0], [-5.1, 7.5, -0.9, 0.0, -0.0, -0.0], [-0.9, -0.9, 3.7, 0.0, 0.0, 0.0], [-0.0, 0.0, 0.0, 10.2, 0.0, 0.0], [0.0, -0.0, 0.0, 0.0, 10.2, 0.0], [0.0, -0.0, 0.0, 0.0, 0.0, 6.0]], 'warnings': ['Contains a rare earth element'], 'nsites': 6}",0,93,209,1.25,0.31,243.66
225,mp-1025316,Ho2Fe2Si2C,"{'Ho': 2.0, 'Fe': 2.0, 'Si': 2.0, 'C': 1.0}",0.150549405,7.927919171,"{'G_Reuss': 80.0, 'G_VRH': 84.0, 'G_Voigt': 87.0, 'G_Voigt_Reuss_Hill': 84.0, 'K_Reuss': 128.0, 'K_VRH': 129.0, 'K_Voigt': 130.0, 'K_Voigt_Reuss_Hill': 129.0, 'elastic_anisotropy': 0.51, 'elastic_tensor': [[217.0, 85.0, 68.0, 0.0, -41.0, 0.0], [85.0, 265.0, 82.0, 0.0, 15.0, 0.0], [68.0, 82.0, 220.0, 0.0, 14.0, 0.0], [0.0, 0.0, 0.0, 95.0, 0.0, 16.0], [-41.0, 15.0, 14.0, 0.0, 93.0, 0.0], [0.0, 0.0, 0.0, 16.0, 0.0, 94.0]], 'homogeneous_poisson': 0.23, 'poisson_ratio': 0.23, 'universal_anisotropy': 0.51, 'elastic_tensor_original': [[217.03698178744568, 83.17307883960916, 67.5613200197049, 5.599941682480147e-06, -46.09124700799922, -2.6599722991780696e-05], [86.8241784807858, 265.47365318392366, 84.63579424987704, -1.199981702345358e-06, 9.53595259314347, -1.0599838370717333e-05], [68.868097250339, 79.87447802860322, 219.8232872681649, -1.0000055766384734e-06, 8.762003062250894, -8.400046843763178e-06], [0.0, -4.004424410792306e-06, 0.0, 94.5798584606152, 0.0, 16.273364113775195], [-36.555270883398975, 20.959896084313634, 19.41562865755877, -1.149987434805944e-05, 93.36543505423657, 4.599949739223775e-06], [0.0, -2.304522404423393e-05, 0.0, 16.675149848653042, 0.0, 93.74080026246317]], 'compliance_tensor': [[6.4, -1.8, -1.5, -0.0, 3.4, 0.0], [-1.8, 4.8, -1.1, 0.0, -1.4, 0.0], [-1.5, -1.1, 5.5, 0.0, -1.3, -0.0], [-0.0, 0.0, 0.0, 10.9, 0.0, -1.9], [3.4, -1.4, -1.3, 0.0, 12.6, -0.0], [0.0, 0.0, -0.0, -1.9, -0.0, 11.0]], 'warnings': ['Contains a rare earth element'], 'nsites': 7}",0,84,129,0.51,0.23,206.64
226,mp-1025339,Y2Fe2Si2C,"{'Y': 2.0, 'Fe': 2.0, 'Si': 2.0, 'C': 1.0}",0.149094693,5.518674272,"{'G_Reuss': 79.0, 'G_VRH': 83.0, 'G_Voigt': 87.0, 'G_Voigt_Reuss_Hill': 83.0, 'K_Reuss': 124.0, 'K_VRH': 126.0, 'K_Voigt': 127.0, 'K_Voigt_Reuss_Hill': 126.0, 'elastic_anisotropy': 0.5, 'elastic_tensor': [[216.0, 89.0, 62.0, 0.0, -41.0, 0.0], [89.0, 267.0, 74.0, 0.0, 15.0, 0.0], [62.0, 74.0, 212.0, 0.0, 12.0, 0.0], [0.0, 0.0, 0.0, 93.0, 0.0, 13.0], [-41.0, 15.0, 12.0, 0.0, 91.0, 0.0], [0.0, 0.0, 0.0, 13.0, 0.0, 93.0]], 'homogeneous_poisson': 0.23, 'poisson_ratio': 0.23, 'universal_anisotropy': 0.5, 'elastic_tensor_original': [[215.99957452963147, 95.58630791431418, 53.88060257190623, 0.0, -43.093477321132006, 0.0], [82.61001956270358, 266.80399664374016, 63.396384008965185, -1.1999969867561832e-06, 10.109894013623235, -1.0199974387427557e-05], [69.85869301550646, 84.55672392004476, 211.54441243081567, 0.0, 11.341595035145872, 0.0], [0.0, 0.0, 0.0, 93.03870195264935, 0.0, 12.796124982106418], [-39.27982162899798, 19.08170695423718, 12.241812147468798, 0.0, 91.53505248139525, 0.0], [0.0, 0.0, 0.0, 13.741067362006689, 0.0, 92.96382119623279]], 'compliance_tensor': [[6.5, -2.0, -1.4, -0.0, 3.4, 0.0], [-2.0, 4.8, -1.0, 0.0, -1.5, 0.0], [-1.4, -1.0, 5.6, 0.0, -1.2, -0.0], [-0.0, 0.0, 0.0, 11.0, 0.0, -1.6], [3.4, -1.5, -1.2, 0.0, 12.9, 0.0], [0.0, 0.0, -0.0, -1.6, 0.0, 11.0]], 'warnings': [], 'nsites': 7}",0,83,126,0.5,0.23,204.18
227,mp-1025357,Lu2Fe2Si2C,"{'Lu': 2.0, 'Fe': 2.0, 'Si': 2.0, 'C': 1.0}",0.145498569,8.519183744,"{'G_Reuss': 82.0, 'G_VRH': 85.0, 'G_Voigt': 88.0, 'G_Voigt_Reuss_Hill': 85.0, 'K_Reuss': 141.0, 'K_VRH': 141.0, 'K_Voigt': 142.0, 'K_Voigt_Reuss_Hill': 141.0, 'elastic_anisotropy': 0.37, 'elastic_tensor': [[252.0, 97.0, 78.0, 0.0, 35.0, 0.0], [97.0, 266.0, 87.0, 0.0, -14.0, 0.0], [78.0, 87.0, 232.0, 0.0, -16.0, 0.0], [0.0, 0.0, 0.0, 97.0, 0.0, -19.0], [35.0, -14.0, -16.0, 0.0, 91.0, 0.0], [0.0, 0.0, 0.0, -19.0, 0.0, 90.0]], 'homogeneous_poisson': 0.25, 'poisson_ratio': 0.25, 'universal_anisotropy': 0.37, 'elastic_tensor_original': [[251.4927206630843, 107.01408121305873, 88.43313690369061, 4.200014129541798e-06, 33.966905470284765, 3.100010428947517e-05], [87.40746000767422, 265.827355547531, 90.19870569675344, -3.999988376663149e-06, -16.206101707618362, 2.159993723398101e-05], [68.52181417615404, 83.76886923689199, 231.6818708707762, -1.9999643558158557e-06, -16.88547426015968, 8.399850294426596e-06], [0.0, -4.519451125694275e-06, 0.0, 97.22509535832343, 0.0, -18.408411537490423], [35.333516577619584, -11.24872313704889, -14.05352836022443, 1.1300055288203628e-05, 90.92856948961666, 4.300021038873946e-06], [0.0, 2.2282725165635756e-05, 0.0, -19.361035744920358, 0.0, 89.90786527769967]], 'compliance_tensor': [[5.4, -1.7, -1.4, -0.0, -2.5, -0.0], [-1.7, 4.8, -1.2, -0.0, 1.2, -0.0], [-1.4, -1.2, 5.3, -0.0, 1.3, 0.0], [-0.0, -0.0, -0.0, 10.7, -0.0, 2.3], [-2.5, 1.2, 1.3, -0.0, 12.4, -0.0], [-0.0, -0.0, 0.0, 2.3, -0.0, 11.6]], 'warnings': ['Contains a rare earth element'], 'nsites': 7}",0,85,141,0.37,0.25,212.5
228,mp-570102,HoSiRu2C,"{'Ho': 1.0, 'Si': 1.0, 'Ru': 2.0, 'C': 1.0}",0.10481699,8.950757758,"{'G_Reuss': 75.0, 'G_VRH': 77.0, 'G_Voigt': 79.0, 'G_Voigt_Reuss_Hill': 77.0, 'K_Reuss': 175.0, 'K_VRH': 176.0, 'K_Voigt': 178.0, 'K_Voigt_Reuss_Hill': 176.0, 'elastic_anisotropy': 0.3, 'elastic_tensor': [[298.0, 118.0, 125.0, 0.0, 0.0, 0.0], [118.0, 325.0, 136.0, 0.0, 0.0, 0.0], [125.0, 136.0, 225.0, 0.0, 0.0, 0.0], [0.0, 0.0, 0.0, 73.0, 0.0, 0.0], [0.0, 0.0, 0.0, 0.0, 102.0, 0.0], [0.0, 0.0, 0.0, 0.0, 0.0, 62.0]], 'homogeneous_poisson': 0.31, 'poisson_ratio': 0.31, 'universal_anisotropy': 0.3, 'elastic_tensor_original': [[297.5168743204972, 112.79772876937382, 123.1155251934138, 1.0200080297351847e-05, 0.0, 0.0], [123.66012458102813, 324.9782081717527, 144.23305746818136, 2.900050280175622e-05, 0.0, 0.0], [126.0535760037302, 127.58198688841641, 225.06944370533364, 1.1400193070085458e-05, 0.0, 0.0], [0.0, 0.0, 1.3172736688291579e-05, 73.40354442837565, 0.0, 0.0], [0.0, 0.0, 0.0, 0.0, 101.87501098433283, 0.0], [0.0, 0.0, 0.0, 0.0, 5.599983941039075e-06, 62.024568710932584]], 'compliance_tensor': [[4.526052247907087, -0.8011800282564946, -2.021552927583404, -1.437768910579218e-07, 0.0, 0.0], [-0.8011800282564948, 4.2585576898662705, -2.128033739405511, 7.642254716259729e-07, 0.0, 0.0], [-2.0215529275834037, -2.1280337394055118, 6.847086971282862, 8.405067817506986e-07, 0.0, 0.0], [-1.4377689105792192e-07, 7.64225471625973e-07, 8.405067817506986e-07, 13.623320342190988, 0.0, 0.0], [0.0, 0.0, 0.0, 0.0, 9.81594986187348, 1.4466558411862217e-06], [0.0, 0.0, 0.0, 0.0, 1.4466558411862217e-06, 16.12264334574453]], 'warnings': ['Structure contains a rare earth element'], 'nsites': 10}",0,77,176,0.3,0.31,201.74
229,mp-6353,Y2Si4CN6,"{'Y': 2.0, 'Si': 4.0, 'C': 1.0, 'N': 6.0}",0.119188366,4.140777985,"{'G_Reuss': 99.0, 'G_VRH': 101.0, 'G_Voigt': 102.0, 'G_Voigt_Reuss_Hill': 101.0, 'K_Reuss': 163.0, 'K_VRH': 167.0, 'K_Voigt': 172.0, 'K_Voigt_Reuss_Hill': 167.0, 'elastic_anisotropy': 0.22, 'elastic_tensor': [[354.0, 103.0, 113.0, 0.0, -3.0, 0.0], [103.0, 230.0, 88.0, 0.0, -20.0, 0.0], [113.0, 88.0, 350.0, 0.0, 8.0, 0.0], [0.0, 0.0, 0.0, 92.0, 0.0, -1.0], [-3.0, -20.0, 8.0, 0.0, 110.0, 0.0], [0.0, 0.0, 0.0, -1.0, 0.0, 101.0]], 'homogeneous_poisson': 0.25, 'poisson_ratio': 0.25, 'universal_anisotropy': 0.22, 'elastic_tensor_original': [[230.17433590661386, 87.55953823044813, 104.09664993720548, -17.882710763374295, 0.0, 0.0], [88.26768932795117, 350.38937210987064, 113.74294859018174, 8.037310053326312, 0.0, 0.0], [102.76287340590324, 113.0170206783076, 354.0874674748822, -0.6462263528154853, 0.0, 0.0], [-21.92813141318862, 8.920749063233574, -5.4037979066933515, 110.14654412282914, 0.0, 0.0], [-0.0008156003935056114, 0.005589919363654828, -0.0028743013867738735, 0.0042123520323484615, 100.64340592444806, -1.0944538780450486], [0.0005753803182009292, 0.0002382234650778334, 0.002108221165905734, 0.0002782268205338658, -0.5273366316320046, 91.50489059478083]], 'compliance_tensor': [[3.4, -1.2, -0.8, 0.0, -0.1, 0.0], [-1.2, 5.4, -1.0, 0.0, 1.0, 0.0], [-0.8, -1.0, 3.4, 0.0, -0.5, 0.0], [0.0, 0.0, 0.0, 10.9, 0.0, 0.1], [-0.1, 1.0, -0.5, 0.0, 9.3, 0.0], [0.0, 0.0, 0.0, 0.1, 0.0, 9.9]], 'warnings': [], 'nsites': 52}",0,101,167,0.22,0.25,252.5
230,mp-6624,Tb2Fe2Si2C,"{'Tb': 2.0, 'Fe': 2.0, 'Si': 2.0, 'C': 1.0}",0.133448698,7.583527316,"{'G_Reuss': 76.0, 'G_VRH': 81.0, 'G_Voigt': 85.0, 'G_Voigt_Reuss_Hill': 81.0, 'K_Reuss': 125.0, 'K_VRH': 126.0, 'K_Voigt': 128.0, 'K_Voigt_Reuss_Hill': 126.0, 'elastic_anisotropy': 0.61, 'elastic_tensor': [[208.0, 82.0, 74.0, 0.0, -47.0, 0.0], [82.0, 255.0, 78.0, 0.0, 11.0, 0.0], [74.0, 78.0, 217.0, 0.0, 9.0, 0.0], [0.0, 0.0, 0.0, 92.0, 0.0, 15.0], [-47.0, 11.0, 9.0, 0.0, 92.0, 0.0], [0.0, 0.0, 0.0, 15.0, 0.0, 93.0]], 'homogeneous_poisson': 0.24, 'poisson_ratio': 0.24, 'universal_anisotropy': 0.61, 'elastic_tensor_original': [[208.22327743076627, 90.04247675398538, 81.62510192019883, -5.599963564792366e-06, -45.98119543119588, 2.5399834740308226e-05], [73.51486219941073, 255.3757772950916, 77.5836029665636, 0.0, 11.188429473265511, 0.0], [66.90695809007501, 78.86662319541037, 216.7114027681667, 1.2000060709701434e-06, 9.081666345205255, 8.200041484962647e-06], [0.0, 0.0, 0.0, 91.94003719862671, 0.0, 14.683324225278515], [-48.35208788769093, 11.368000655351135, 8.620735671977148, 1.1300015561726007e-05, 92.50464159202694, -6.000008262863366e-06], [0.0, 0.0, 0.0, 14.785302945725352, 0.0, 93.09922075482145]], 'compliance_tensor': [[7.1, -1.9, -1.9, 0.0, 4.1, 0.0], [-1.9, 4.9, -1.1, -0.0, -1.5, 0.0], [-1.9, -1.1, 5.7, -0.0, -1.4, 0.0], [0.0, -0.0, -0.0, 11.2, 0.0, -1.8], [4.1, -1.5, -1.4, 0.0, 13.2, -0.0], [0.0, 0.0, 0.0, -1.8, -0.0, 11.0]], 'warnings': ['Contains a rare earth element'], 'nsites': 7}",0,81,126,0.61,0.24,200.88
231,mp-6794,LaB2Rh2C,"{'La': 1.0, 'B': 2.0, 'Rh': 2.0, 'C': 1.0}",0.138005427,7.956045802,"{'G_Reuss': 47.0, 'G_VRH': 55.0, 'G_Voigt': 63.0, 'G_Voigt_Reuss_Hill': 55.0, 'K_Reuss': 204.0, 'K_VRH': 204.0, 'K_Voigt': 205.0, 'K_Voigt_Reuss_Hill': 204.0, 'elastic_anisotropy': 1.68, 'elastic_tensor': [[264.0, 204.0, 151.0, 0.0, 0.0, 0.0], [204.0, 264.0, 151.0, 0.0, 0.0, 0.0], [151.0, 151.0, 300.0, 0.0, 0.0, 0.0], [0.0, 0.0, 0.0, 38.0, 0.0, 0.0], [0.0, 0.0, 0.0, 0.0, 38.0, 0.0], [0.0, 0.0, 0.0, 0.0, 0.0, 130.0]], 'homogeneous_poisson': 0.38, 'poisson_ratio': 0.38, 'universal_anisotropy': 1.68, 'elastic_tensor_original': [[263.8462246479386, 203.76879618547784, 145.47062054758982, 0.0, 0.0, 0.0], [203.76879618547784, 263.8462246479386, 145.4706205475898, 0.0, 0.0, 0.0], [157.43605530351635, 157.43605530351635, 299.7231610333476, 0.0, 0.0, 0.0], [0.0, 0.0, 0.0, 37.93815241016294, 0.0, 0.0], [0.0, 0.0, 0.0, 0.0, 37.93815241016294, 0.0], [1.3013496915217193, -1.3013496915217184, 0.0, 0.0, -5.99993887194906e-07, 130.12721993112282]], 'compliance_tensor': [[9.9, -6.7, -1.6, -0.0, 0.0, -0.0], [-6.7, 9.9, -1.6, -0.0, -0.0, 0.0], [-1.6, -1.6, 5.0, 0.0, 0.0, 0.0], [-0.0, -0.0, 0.0, 26.4, -0.0, 0.0], [0.0, -0.0, 0.0, -0.0, 26.4, -0.0], [-0.0, 0.0, 0.0, 0.0, -0.0, 7.7]], 'warnings': ['Contains a rare earth element'], 'nsites': 6}",0,55,204,1.68,0.38,151.8
232,mp-6867,KCaCO3F,"{'K': 1.0, 'Ca': 1.0, 'C': 1.0, 'O': 3.0, 'F': 1.0}",0.457579118,2.523223804,"{'G_Reuss': 29.0, 'G_VRH': 29.0, 'G_Voigt': 29.0, 'G_Voigt_Reuss_Hill': 29.0, 'K_Reuss': 50.0, 'K_VRH': 50.0, 'K_Voigt': 50.0, 'K_Voigt_Reuss_Hill': 50.0, 'elastic_anisotropy': 0.07, 'elastic_tensor': [[89.0, 27.0, 29.0, 0.0, 0.0, 0.0], [27.0, 89.0, 29.0, 0.0, 0.0, 0.0], [29.0, 29.0, 101.0, 0.0, 0.0, 0.0], [0.0, 0.0, 0.0, 26.0, 0.0, 0.0], [0.0, 0.0, 0.0, 0.0, 26.0, 0.0], [0.0, 0.0, 0.0, 0.0, 0.0, 31.0]], 'homogeneous_poisson': 0.25, 'poisson_ratio': 0.25, 'universal_anisotropy': 0.07, 'elastic_tensor_original': [[90.09369311316404, 37.267876136311564, 16.869870991584484, 0.0, 0.0, 4.200040181169143e-06], [23.808734950045615, 79.96934218867175, 18.6999064857178, 0.0, 0.0, 8.999967698962965e-06], [39.72672954344253, 39.726728543459984, 101.46103255160324, 0.0, 0.0, 4.3999232407074695e-06], [0.0, 0.0, 0.0, 25.720399282173375, 2.9000280843642115e-06, 0.0], [0.0, 0.0, 0.0, 0.0, 25.916115070826116, 0.0], [7.60095332874404e-06, 0.0, 0.0, 0.0, 0.0, 34.29377953142767]], 'compliance_tensor': [[13.2, -3.1, -2.9, 0.0, 0.0, -0.0], [-3.1, 13.2, -2.9, 0.0, 0.0, -0.0], [-2.9, -2.9, 11.5, 0.0, 0.0, 0.0], [0.0, 0.0, 0.0, 38.7, -0.0, 0.0], [0.0, 0.0, 0.0, -0.0, 38.7, 0.0], [-0.0, -0.0, 0.0, 0.0, 0.0, 32.5]], 'warnings': [], 'nsites': 7}",0,29,50,0.07,0.25,72.5