,mp_id,Formula,Composition,IPF,Density,Elastic_Tensor,E_above_Hull,G_VRH,K_VRH,Elastic_Anisotropy,poisson_ratio,Y_Modulus
208,mp-6494,K2Ca(CO3)2,"{'K': 2.0, 'Ca': 1.0, 'C': 2.0, 'O': 6.0}",0.541976147,2.489991277,"{'G_Reuss': 20.0, 'G_VRH': 24.0, 'G_Voigt': 27.0, 'G_Voigt_Reuss_Hill': 24.0, 'K_Reuss': 48.0, 'K_VRH': 54.0, 'K_Voigt': 60.0, 'K_Voigt_Reuss_Hill': 54.0, 'elastic_anisotropy': 2.04, 'elastic_tensor': [[130.0, 46.0, 35.0, -6.0, 0.0, 0.0], [46.0, 130.0, 35.0, 6.0, 0.0, 0.0], [35.0, 35.0, 52.0, 0.0, 0.0, 0.0], [-6.0, 6.0, 0.0, 15.0, 0.0, 0.0], [0.0, 0.0, 0.0, 0.0, 15.0, -6.0], [0.0, 0.0, 0.0, 0.0, -6.0, 42.0]], 'homogeneous_poisson': 0.31, 'poisson_ratio': 0.31, 'universal_anisotropy': 2.04, 'elastic_tensor_original': [[128.56083746275726, 47.4952410134627, 27.606345875238755, -5.365913963976681, 0.0, 0.0], [46.24095885200915, 129.99233906428563, 27.499402521782816, 4.051310596318782, 0.0, 0.0], [41.64225677797727, 41.64226457793002, 52.06791563104511, -2.7999830408474274e-06, 0.0, 0.0], [-2.8257490466052992, 11.25727911771646, 2.1460820251849513, 14.79475213391808, 0.0, 0.0], [0.0, 0.0, 0.0, 0.0, 14.832716808582171, -5.987369061048549], [0.0, 0.0, 0.0, 0.0, -6.359723175682006, 42.50372855301678]], 'compliance_tensor': [[10.185750327052174, -2.5032892733404286, -5.104765410999531, 5.160254966523169, 3.08465166356628e-15, 9.754395401800394e-16], [-2.503289273340428, 10.185753141051965, -5.104766114747872, -5.160255705564254, -5.56667851343981e-16, 1.1083283219922822e-18], [-5.104765410999533, -5.104766114747872, 25.989612586743032, -2.80182304652428e-08, 2.4414956201560887e-15, -1.8915323195118305e-16], [5.160254966523169, -5.160255705564254, -2.801823005146124e-08, 71.70197184558415, 1.7427701388200513e-15, 3.910766925669103e-15], [2.6980540432674135e-15, -1.645144389474041e-16, 2.2030732870343207e-15, -2.8408461244815146e-16, 71.70196196067613, 10.32050988339058], [6.384443256721078e-16, 6.821198473824125e-16, -9.949433367718872e-16, 2.6089730591852338e-15, 10.320509883390582, 25.378081992532646]], 'warnings': [], 'nsites': 11}",0,24,54,2.04,0.31,62.88
209,mp-9961,Ti2CdC,"{'Ti': 2.0, 'Cd': 1.0, 'C': 1.0}",0.176431938,6.020726394,"{'G_Reuss': 44.0, 'G_VRH': 53.0, 'G_Voigt': 63.0, 'G_Voigt_Reuss_Hill': 53.0, 'K_Reuss': 110.0, 'K_VRH': 112.0, 'K_Voigt': 113.0, 'K_Voigt_Reuss_Hill': 112.0, 'elastic_anisotropy': 2.22, 'elastic_tensor': [[249.0, 73.0, 44.0, 0.0, 0.0, 0.0], [73.0, 249.0, 44.0, 0.0, 0.0, 0.0], [44.0, 44.0, 196.0, 0.0, 0.0, 0.0], [0.0, 0.0, 0.0, 25.0, 0.0, 0.0], [0.0, 0.0, 0.0, 0.0, 25.0, 0.0], [0.0, 0.0, 0.0, 0.0, 0.0, 88.0]], 'homogeneous_poisson': 0.29, 'poisson_ratio': 0.29, 'universal_anisotropy': 2.22, 'elastic_tensor_original': [[250.0691473882862, 72.2127182882768, 43.26856627808229, 0.0, 0.0, -5.745500549268385e-06], [71.00082080113766, 251.40977269134513, 43.96129255551601, 0.0, 0.0, -4.677795984624982e-05], [45.34889732212443, 45.34891013987888, 195.95371514004273, 0.0, 0.0, -8.438537104583826e-06], [-0.00010292321725609356, -7.132592976227469e-06, -0.0001029730203139539, 23.720811064663025, -4.413332403615563e-06, 0.0], [-0.00010579646472250248, -4.296325132349457e-05, 1.9123296832501277e-05, -1.3333307882520063e-07, 26.330593839777034, 0.0], [-0.1863041237149604, 0.11115338054331028, 0.04300377386192504, 0.0, 0.0, 85.80303010598296]], 'compliance_tensor': [[4.5, -1.2, -0.8, 0.0, 0.0, 0.0], [-1.2, 4.5, -0.8, 0.0, -0.0, 0.0], [-0.8, -0.8, 5.4, 0.0, 0.0, -0.0], [-0.0, 0.0, 0.0, 40.0, 0.0, -0.0], [0.0, -0.0, 0.0, 0.0, 40.0, 0.0], [0.0, 0.0, -0.0, -0.0, 0.0, 11.4]], 'warnings': [], 'nsites': 8}",0,53,112,2.22,0.29,136.74
210,mp-1025285,Ce2Re2Si2C,"{'Ce': 2.0, 'Re': 2.0, 'Si': 2.0, 'C': 1.0}",0.119996819,9.565360349,"{'G_Reuss': 56.0, 'G_VRH': 60.0, 'G_Voigt': 64.0, 'G_Voigt_Reuss_Hill': 60.0, 'K_Reuss': 119.0, 'K_VRH': 121.0, 'K_Voigt': 122.0, 'K_Voigt_Reuss_Hill': 121.0, 'elastic_anisotropy': 0.72, 'elastic_tensor': [[200.0, 93.0, 64.0, 0.0, -20.0, 0.0], [93.0, 205.0, 101.0, 0.0, 25.0, 0.0], [64.0, 101.0, 177.0, 0.0, 16.0, 0.0], [0.0, 0.0, 0.0, 81.0, 0.0, 17.0], [-20.0, 25.0, 16.0, 0.0, 61.0, 0.0], [0.0, 0.0, 0.0, 17.0, 0.0, 70.0]], 'homogeneous_poisson': 0.29, 'poisson_ratio': 0.29, 'universal_anisotropy': 0.72, 'elastic_tensor_original': [[200.27538341920518, 89.30319907557254, 59.76489121743742, -4.200006719561795e-06, -18.767980426762495, 4.600007359520062e-05], [96.13105185539133, 205.29032169622243, 104.38951783732634, 5.400038043949464e-06, 23.33989523250723, 2.220015640290335e-05], [68.54992592084699, 98.07988757440674, 176.98952371400486, 4.7999900933732046e-06, 21.06077913297719, 1.5799967390686802e-05], [0.0, 3.6540616169855393e-06, 0.0, 80.78302403735913, 0.0, 15.811501988495674], [-20.419795865885728, 25.783389673219904, 10.66995868773913, 1.4099932721440263e-05, 61.09968195970092, -4.799977096660514e-06], [0.0, 1.616765731065374e-05, 0.0, 17.448548800034676, 0.0, 70.1537815889911]], 'compliance_tensor': [[7.2, -3.1, -1.2, 0.0, 3.9, -0.0], [-3.1, 8.3, -3.3, -0.0, -3.5, -0.0], [-1.2, -3.3, 8.1, -0.0, -1.1, 0.0], [0.0, -0.0, -0.0, 13.0, -0.0, -3.1], [3.9, -3.5, -1.1, -0.0, 19.3, 0.0], [-0.0, -0.0, 0.0, -3.1, 0.0, 15.0]], 'warnings': ['Contains a rare earth element'], 'nsites': 7}",0,60,121,0.72,0.29,154.8
211,mp-568083,LaNi2B2C,"{'La': 1.0, 'Ni': 2.0, 'B': 2.0, 'C': 1.0}",0.154505194,6.869208901,"{'G_Reuss': 75.0, 'G_VRH': 81.0, 'G_Voigt': 88.0, 'G_Voigt_Reuss_Hill': 81.0, 'K_Reuss': 78.0, 'K_VRH': 81.0, 'K_Voigt': 84.0, 'K_Voigt_Reuss_Hill': 81.0, 'elastic_anisotropy': 0.98, 'elastic_tensor': [[245.0, 97.0, -39.0, 0.0, 0.0, 0.0], [97.0, 245.0, -39.0, 0.0, 0.0, 0.0], [-39.0, -39.0, 226.0, 0.0, 0.0, 0.0], [0.0, 0.0, 0.0, 55.0, 0.0, 0.0], [0.0, 0.0, 0.0, 0.0, 55.0, 0.0], [0.0, 0.0, 0.0, 0.0, 0.0, 98.0]], 'homogeneous_poisson': 0.12, 'poisson_ratio': 0.12, 'universal_anisotropy': 0.98, 'elastic_tensor_original': [[245.42935588002402, 96.98928641529872, -207.36299322250042, 2.0999461838075016e-05, 0.0, -2.559934395498669e-05], [96.98928641528406, 245.42935587992744, -207.36299322242607, 2.1466169642399247e-05, 4.6670793146673367e-07, -6.661961309092314e-05], [128.9355163273867, 128.9355163273867, 226.30687855795642, -2.279980374005177e-05, 0.0, -3.399970733165614e-05], [0.0, -1.129444247482897e-05, 0.0, 54.552107958334155, -1.4799981423067313e-05, 0.0], [0.0, 0.0, 0.0, 1.0820394205162489e-07, 54.55210795833012, -5.647221774224206e-06], [0.9818331749668288, -0.9818860600273476, -1.0403939691052988e-09, -2.2912141785577587e-06, -2.2912148035987885e-06, 98.18378155786057]], 'compliance_tensor': [[4.9, -1.8, 0.5, 0.0, -0.0, 0.0], [-1.8, 4.9, 0.5, 0.0, 0.0, 0.0], [0.5, 0.5, 4.6, 0.0, -0.0, 0.0], [0.0, 0.0, 0.0, 18.3, 0.0, 0.0], [-0.0, 0.0, -0.0, 0.0, 18.3, 0.0], [0.0, 0.0, 0.0, 0.0, 0.0, 10.2]], 'warnings': ['Contains a rare earth element'], 'nsites': 6}",0,81,81,0.98,0.12,181.44
212,mp-6092,TbNi2B2C,"{'Tb': 1.0, 'Ni': 2.0, 'B': 2.0, 'C': 1.0}",0.122847165,7.858244557,"{'G_Reuss': 70.0, 'G_VRH': 74.0, 'G_Voigt': 77.0, 'G_Voigt_Reuss_Hill': 74.0, 'K_Reuss': 186.0, 'K_VRH': 186.0, 'K_Voigt': 186.0, 'K_Voigt_Reuss_Hill': 186.0, 'elastic_anisotropy': 0.5, 'elastic_tensor': [[286.0, 122.0, 147.0, 0.0, 0.0, 0.0], [122.0, 286.0, 147.0, 0.0, 0.0, 0.0], [147.0, 147.0, 270.0, 0.0, 0.0, 0.0], [0.0, 0.0, 0.0, 58.0, 0.0, 0.0], [0.0, 0.0, 0.0, 0.0, 58.0, 0.0], [0.0, 0.0, 0.0, 0.0, 0.0, 128.0]], 'homogeneous_poisson': 0.33, 'poisson_ratio': 0.33, 'universal_anisotropy': 0.5, 'elastic_tensor_original': [[285.58390766315927, 121.71314083311418, 145.5296344859112, 1.4199891877002892e-05, -1.4199891877002892e-05, 0.0], [121.71314083310716, 285.58390766314284, 145.52963448590285, 1.4318242610640586e-05, -1.4199891878358004e-05, 0.0], [149.15909342943178, 149.15909342943178, 269.85087004415794, 2.5999783373813724e-05, -2.5999783373813724e-05, 0.0], [0.0, 1.1303684433630792e-05, 0.0, 57.68354661880158, 2.9184813028188654e-08, -5.651821771935279e-06], [-1.1303684434743478e-05, 0.0, 0.0, -2.9184813008056828e-08, 57.68354661880158, 5.651863096203456e-06], [1.2826834205145647, -1.2826834205145967, 0.0, -1.2138763569587993e-08, 0.0, 128.2605979252928]], 'compliance_tensor': [[5.1, -1.0, -2.2, -0.0, 0.0, 0.0], [-1.0, 5.1, -2.2, 0.0, -0.0, 0.0], [-2.2, -2.2, 6.1, 0.0, 0.0, 0.0], [-0.0, 0.0, 0.0, 17.3, 0.0, 0.0], [0.0, -0.0, 0.0, 0.0, 17.3, 0.0], [0.0, 0.0, 0.0, 0.0, 0.0, 7.8]], 'warnings': ['Contains a rare earth element'], 'nsites': 6}",0,74,186,0.5,0.33,196.84
213,mp-634431,KHCO3,"{'K': 1.0, 'H': 1.0, 'C': 1.0, 'O': 3.0}",0.501726421,2.087284993,"{'G_Reuss': 9.0, 'G_VRH': 10.0, 'G_Voigt': 11.0, 'G_Voigt_Reuss_Hill': 10.0, 'K_Reuss': 20.0, 'K_VRH': 24.0, 'K_Voigt': 27.0, 'K_Voigt_Reuss_Hill': 24.0, 'elastic_anisotropy': 1.93, 'elastic_tensor': [[51.0, 20.0, 24.0, 0.0, 17.0, 0.0], [20.0, 43.0, 15.0, 0.0, 6.0, 0.0], [24.0, 15.0, 31.0, 0.0, 7.0, 0.0], [0.0, 0.0, 0.0, 10.0, 0.0, 4.0], [17.0, 6.0, 7.0, 0.0, 15.0, 0.0], [0.0, 0.0, 0.0, 4.0, 0.0, 9.0]], 'homogeneous_poisson': 0.31, 'poisson_ratio': 0.31, 'universal_anisotropy': 1.93, 'elastic_tensor_original': [[43.392755998561434, 14.378375280769328, 20.454697408876676, 6.398597696739432, 0.0, 0.0], [15.767090011042187, 31.593894563064556, 24.441052270185153, 7.299189150398902, 0.0, 0.0], [19.244633629816764, 23.537467329774483, 50.589994275710986, 17.519376941158693, 0.0, 0.0], [6.1849649542292084, 6.168845173356189, 17.041602347546014, 15.295495681329822, 0.0, 0.0], [-0.005674601818151497, -0.028500998906217163, -0.18513534306508977, -0.08806730968799789, 9.13532020169448, 3.7014224364870603], [0.04129111248789815, -0.037429057555365665, -0.06324643367994864, -0.03323599305715672, 3.8085654127167508, 10.08694001475499]], 'compliance_tensor': [[47.5, -7.7, -23.8, 0.0, -40.8, 0.0], [-7.7, 29.4, -8.2, 0.0, 0.2, 0.0], [-23.8, -8.2, 52.2, 0.0, 8.0, 0.0], [0.0, 0.0, 0.0, 117.8, 0.0, -48.2], [-40.8, 0.2, 8.0, 0.0, 109.2, 0.0], [0.0, 0.0, 0.0, -48.2, 0.0, 128.5]], 'warnings': [], 'nsites': 24}",0,10,24,1.93,0.31,26.2
214,mp-6754,TmNi2B2C,"{'Tm': 1.0, 'Ni': 2.0, 'B': 2.0, 'C': 1.0}",0.149903942,8.309262097,"{'G_Reuss': 70.0, 'G_VRH': 74.0, 'G_Voigt': 79.0, 'G_Voigt_Reuss_Hill': 74.0, 'K_Reuss': 194.0, 'K_VRH': 195.0, 'K_Voigt': 196.0, 'K_Voigt_Reuss_Hill': 195.0, 'elastic_anisotropy': 0.64, 'elastic_tensor': [[296.0, 176.0, 136.0, 0.0, 0.0, 0.0], [176.0, 296.0, 136.0, 0.0, 0.0, 0.0], [136.0, 136.0, 271.0, 0.0, 0.0, 0.0], [0.0, 0.0, 0.0, 57.0, 0.0, 0.0], [0.0, 0.0, 0.0, 0.0, 57.0, 0.0], [0.0, 0.0, 0.0, 0.0, 0.0, 140.0]], 'homogeneous_poisson': 0.33, 'poisson_ratio': 0.33, 'universal_anisotropy': 0.64, 'elastic_tensor_original': [[296.3273294286602, 176.24171535265722, 116.91241577128883, 0.0, 0.0, 0.0], [176.24171535265714, 296.32732942866005, 116.9124157712888, 2.226583623668202e-07, 0.0, 0.0], [155.99358447692194, 155.99358447692194, 271.0091163575929, 0.0, 0.0, 0.0], [0.0, 1.0901713732877218e-07, 0.0, 57.24276447661593, -1.235874293193437e-08, -5.450802429579897e-08], [-1.0901714322736824e-07, 0.0, 0.0, 1.2358742931934483e-08, 57.24276447661593, 5.450909601378376e-08], [1.4050195957803895, -1.405019595780676, 0.0, -9.879456267298515e-08, 0.0, 140.49344246537026]], 'compliance_tensor': [[5.7, -2.7, -1.5, -0.0, 0.0, 0.0], [-2.7, 5.7, -1.5, 0.0, -0.0, -0.0], [-1.5, -1.5, 5.2, 0.0, 0.0, 0.0], [-0.0, 0.0, 0.0, 17.5, 0.0, 0.0], [0.0, -0.0, 0.0, 0.0, 17.5, 0.0], [0.0, -0.0, 0.0, 0.0, 0.0, 7.1]], 'warnings': ['Contains a rare earth element'], 'nsites': 6}",0,74,195,0.64,0.33,196.84
215,mp-1024999,HoCr2Si2C,"{'Ho': 1.0, 'Cr': 2.0, 'Si': 2.0, 'C': 1.0}",0.160212245,6.837675236,"{'G_Reuss': 110.0, 'G_VRH': 111.0, 'G_Voigt': 113.0, 'G_Voigt_Reuss_Hill': 111.0, 'K_Reuss': 159.0, 'K_VRH': 160.0, 'K_Voigt': 161.0, 'K_Voigt_Reuss_Hill': 160.0, 'elastic_anisotropy': 0.16, 'elastic_tensor': [[366.0, 70.0, 76.0, 0.0, 0.0, 0.0], [70.0, 366.0, 76.0, 0.0, 0.0, 0.0], [76.0, 76.0, 272.0, 0.0, 0.0, 0.0], [0.0, 0.0, 0.0, 96.0, 0.0, 0.0], [0.0, 0.0, 0.0, 0.0, 96.0, 0.0], [0.0, 0.0, 0.0, 0.0, 0.0, 112.0]], 'homogeneous_poisson': 0.22, 'poisson_ratio': 0.22, 'universal_anisotropy': 0.16, 'elastic_tensor_original': [[365.7822195463499, 70.81794442200612, 80.76445408720183, 0.0, 0.0, 0.0], [69.22200420666894, 366.60800616559385, 80.29425187693651, 0.0, 0.0, 0.0], [70.41065174400504, 74.2599959695099, 272.208113876614, 0.0, 0.0, 0.0], [-0.15631379536354073, 0.19782388383579233, 0.1311549887825254, 96.02553022311918, 0.0, 0.0], [-0.19778688850106343, 0.15635369232886587, -0.1311181304728175, 0.0, 95.91357961160588, 0.0], [0.7190352428205605, -0.7190724686117398, 0.0, 0.0, 0.0, 112.17743619019494]], 'compliance_tensor': [[3.0, -0.4, -0.7, 0.0, -0.0, -0.0], [-0.4, 3.0, -0.7, 0.0, 0.0, -0.0], [-0.7, -0.7, 4.1, 0.0, 0.0, 0.0], [0.0, 0.0, 0.0, 10.4, 0.0, 0.0], [-0.0, 0.0, 0.0, 0.0, 10.4, 0.0], [-0.0, -0.0, 0.0, 0.0, -0.0, 8.9]], 'warnings': ['Contains a rare earth element'], 'nsites': 6}",0,111,160,0.16,0.22,270.84
216,mp-1025262,Sm2Fe2Si2C,"{'Sm': 2.0, 'Fe': 2.0, 'Si': 2.0, 'C': 1.0}",0.194854064,7.012711218,"{'G_Reuss': 66.0, 'G_VRH': 72.0, 'G_Voigt': 78.0, 'G_Voigt_Reuss_Hill': 72.0, 'K_Reuss': 126.0, 'K_VRH': 128.0, 'K_Voigt': 130.0, 'K_Voigt_Reuss_Hill': 128.0, 'elastic_anisotropy': 0.91, 'elastic_tensor': [[194.0, 86.0, 89.0, 0.0, -48.0, 0.0], [86.0, 250.0, 79.0, 0.0, 12.0, 0.0], [89.0, 79.0, 213.0, 0.0, 5.0, 0.0], [0.0, 0.0, 0.0, 85.0, 0.0, 12.0], [-48.0, 12.0, 5.0, 0.0, 82.0, 0.0], [0.0, 0.0, 0.0, 12.0, 0.0, 87.0]], 'homogeneous_poisson': 0.26, 'poisson_ratio': 0.26, 'universal_anisotropy': 0.91, 'elastic_tensor_original': [[194.19185689149754, 99.38740451301021, 95.82963064272221, -6.199990712123348e-06, -52.043602836243906, 2.3199965245364786e-05], [71.75127832340984, 250.22967887118767, 73.54175037298874, -7.999887627096664e-07, 6.623339963200466, -8.599879199128913e-06], [82.72139282124937, 85.09066025007566, 213.20688515852376, 0.0, 0.6323518763299653, 9.999792466850081e-06], [0.0, -2.7707406621637872e-08, 0.0, 84.73138495876711, 0.0, 11.450186540220942], [-43.99649510486573, 17.79853267870371, 9.599726622822033, 9.899925565725203e-06, 82.25231147200131, -5.3999593994864745e-06], [0.0, -2.0991024144934034e-07, 0.0, 11.917609728202544, 0.0, 87.21061577899447]], 'compliance_tensor': [[9.1, -2.4, -3.0, -0.0, 5.8, 0.0], [-2.4, 5.2, -0.9, 0.0, -2.1, 0.0], [-3.0, -0.9, 6.3, 0.0, -2.0, -0.0], [-0.0, 0.0, 0.0, 12.0, 0.0, -1.6], [5.8, -2.1, -2.0, 0.0, 16.0, -0.0], [0.0, 0.0, -0.0, -1.6, -0.0, 11.7]], 'warnings': ['Contains a rare earth element'], 'nsites': 7}",0,72,128,0.91,0.26,181.44
217,mp-1025354,Er2Fe2Si2C,"{'Er': 2.0, 'Fe': 2.0, 'Si': 2.0, 'C': 1.0}",0.149061514,8.070122738,"{'G_Reuss': 81.0, 'G_VRH': 85.0, 'G_Voigt': 89.0, 'G_Voigt_Reuss_Hill': 85.0, 'K_Reuss': 138.0, 'K_VRH': 139.0, 'K_Voigt': 139.0, 'K_Voigt_Reuss_Hill': 139.0, 'elastic_anisotropy': 0.45, 'elastic_tensor': [[242.0, 94.0, 84.0, 0.0, -41.0, 0.0], [94.0, 260.0, 83.0, 0.0, 13.0, 0.0], [84.0, 83.0, 229.0, 0.0, 14.0, 0.0], [0.0, 0.0, 0.0, 96.0, 0.0, 17.0], [-41.0, 13.0, 14.0, 0.0, 96.0, 0.0], [0.0, 0.0, 0.0, 17.0, 0.0, 94.0]], 'homogeneous_poisson': 0.25, 'poisson_ratio': 0.25, 'universal_anisotropy': 0.45, 'elastic_tensor_original': [[241.84029976271992, 105.59353892241764, 92.8310429072313, 0.0, -37.864879547058315, 0.0], [83.09112222890819, 260.4168723652667, 80.92515591390894, 1.8000005941916505e-06, 13.949175004711432, 1.0200003367086018e-05], [74.82299212431994, 84.92441358735657, 229.0083677963389, 0.0, 14.481920759586755, 0.0], [0.0, 4.294831503559891e-06, 0.0, 95.69069537231584, 0.0, 17.254458145150323], [-44.50379494354118, 12.077836325183053, 12.541936596556432, 0.0, 96.42615648551418, 0.0], [0.0, 2.3348653522133423e-05, 0.0, 17.356055135173197, 0.0, 93.80585316189179]], 'compliance_tensor': [[5.9, -1.8, -1.7, 0.0, 3.0, -0.0], [-1.8, 4.9, -1.0, 0.0, -1.3, -0.0], [-1.7, -1.0, 5.5, 0.0, -1.4, 0.0], [0.0, 0.0, 0.0, 10.8, -0.0, -2.0], [3.0, -1.3, -1.4, -0.0, 12.0, 0.0], [-0.0, -0.0, 0.0, -2.0, 0.0, 11.0]], 'warnings': ['Contains a rare earth element'], 'nsites': 7}",0,85,139,0.45,0.25,212.5
218,mp-567655,Sr2C(NCl)2,"{'Sr': 2.0, 'C': 1.0, 'N': 2.0, 'Cl': 2.0}",0.167362359,3.124749313,"{'G_Reuss': 16.0, 'G_VRH': 18.0, 'G_Voigt': 19.0, 'G_Voigt_Reuss_Hill': 18.0, 'K_Reuss': 45.0, 'K_VRH': 45.0, 'K_Voigt': 45.0, 'K_Voigt_Reuss_Hill': 45.0, 'elastic_anisotropy': 1.07, 'elastic_tensor': [[78.0, 28.0, 39.0, 0.0, -4.0, 0.0], [28.0, 61.0, 39.0, 0.0, 0.0, 0.0], [39.0, 39.0, 58.0, 0.0, -2.0, 0.0], [0.0, 0.0, 0.0, 19.0, 0.0, 4.0], [-4.0, 0.0, -2.0, 0.0, 32.0, 0.0], [0.0, 0.0, 0.0, 4.0, 0.0, 15.0]], 'homogeneous_poisson': 0.33, 'poisson_ratio': 0.33, 'universal_anisotropy': 1.07, 'elastic_tensor_original': [[78.38527152204648, 31.033951454059544, 36.31369274005335, -5.999931686059786e-07, -5.381749324552072, 8.19990663761504e-06], [25.67252183356945, 60.78200522543472, 35.38919365466912, 2.0000376311031012e-07, 1.6704316295010735, 2.6000489204340316e-06], [42.25217512586256, 41.64033688565925, 57.91536247343853, 0.0, 0.5172530398045612, 4.399944196569901e-06], [0.0, 0.0, 0.0, 18.804663240234408, 0.0, 4.14735667599137], [-2.3770674888789403, -1.1864558815120867, -3.817623851272204, 3.4000211531651765e-06, 32.25807789300137, -3.000018664557509e-07], [0.0, 0.0, 0.0, 3.8943260527892125, 0.0, 15.310274650336872]], 'compliance_tensor': [[19.5, -1.3, -12.3, 0.0, 1.7, -0.0], [-1.3, 28.6, -18.2, -0.0, -1.3, -0.0], [-12.3, -18.2, 37.7, -0.0, 0.6, 0.0], [0.0, -0.0, -0.0, 56.3, -0.0, -14.8], [1.7, -1.3, 0.6, -0.0, 31.2, 0.0], [-0.0, -0.0, 0.0, -14.8, 0.0, 69.2]], 'warnings': [], 'nsites': 7}",0,18,45,1.07,0.33,47.88
219,mp-6098,ErNi2B2C,"{'Er': 1.0, 'Ni': 2.0, 'B': 2.0, 'C': 1.0}",0.134597211,8.212015098,"{'G_Reuss': 72.0, 'G_VRH': 75.0, 'G_Voigt': 79.0, 'G_Voigt_Reuss_Hill': 75.0, 'K_Reuss': 162.0, 'K_VRH': 162.0, 'K_Voigt': 162.0, 'K_Voigt_Reuss_Hill': 162.0, 'elastic_anisotropy': 0.54, 'elastic_tensor': [[248.0, 115.0, 115.0, 0.0, 0.0, 0.0], [115.0, 248.0, 115.0, 0.0, 0.0, 0.0], [115.0, 115.0, 274.0, 0.0, 0.0, 0.0], [0.0, 0.0, 0.0, 58.0, 0.0, 0.0], [0.0, 0.0, 0.0, 0.0, 58.0, 0.0], [0.0, 0.0, 0.0, 0.0, 0.0, 138.0]], 'homogeneous_poisson': 0.3, 'poisson_ratio': 0.3, 'universal_anisotropy': 0.54, 'elastic_tensor_original': [[247.89015435701296, 114.98735481190862, 106.29562830964699, -2.0400004934134486e-05, 1.0200002467067243e-05, 0.0], [114.9873548119065, 247.89015435700836, 106.29562830964502, -1.0112188206882676e-05, 2.0400004933160296e-05, 0.0], [123.44685983334686, 123.44685983334686, 273.98778267310223, -5.199925612565253e-05, 5.199925612565253e-05, 0.0], [0.0, -1.1156154767745845e-05, 0.0, 58.381757707752335, 1.6745796912831857e-08, 5.578029160151261e-06], [1.1156154767949082e-05, 0.0, 0.0, -1.6745796912814867e-08, 58.38175770775234, -5.578128722611327e-06], [1.3786088492754558, -1.3786088492824398, 0.0, 2.060704140582859e-08, -7.000002789012017e-07, 137.85416742521136]], 'compliance_tensor': [[5.6, -1.9, -1.6, 0.0, -0.0, 0.0], [-1.9, 5.6, -1.6, -0.0, 0.0, 0.0], [-1.6, -1.6, 5.0, -0.0, -0.0, 0.0], [0.0, -0.0, -0.0, 17.1, 0.0, -0.0], [-0.0, 0.0, -0.0, 0.0, 17.1, -0.0], [0.0, 0.0, 0.0, -0.0, -0.0, 7.3]], 'warnings': ['Contains a rare earth element'], 'nsites': 6}",0,75,162,0.54,0.3,195