,mp_id,Formula,Composition,IPF,Density,Elastic_Tensor,E_above_Hull,G_VRH,K_VRH,Elastic_Anisotropy,poisson_ratio,Y_Modulus
78,mp-7159,La3TlC,"{'La': 3.0, 'Tl': 1.0, 'C': 1.0}",0.209186789,7.26925063,"{'G_Reuss': 40.0, 'G_VRH': 40.0, 'G_Voigt': 40.0, 'G_Voigt_Reuss_Hill': 40.0, 'K_Reuss': 63.0, 'K_VRH': 63.0, 'K_Voigt': 63.0, 'K_Voigt_Reuss_Hill': 63.0, 'elastic_anisotropy': 0.01, 'elastic_tensor': [[120.0, 35.0, 35.0, 0.0, 0.0, 0.0], [35.0, 120.0, 35.0, 0.0, 0.0, 0.0], [35.0, 35.0, 120.0, 0.0, 0.0, 0.0], [0.0, 0.0, 0.0, 38.0, 0.0, 0.0], [0.0, 0.0, 0.0, 0.0, 38.0, 0.0], [0.0, 0.0, 0.0, 0.0, 0.0, 38.0]], 'homogeneous_poisson': 0.24, 'poisson_ratio': 0.24, 'universal_anisotropy': 0.01, 'elastic_tensor_original': [[120.15645743303865, 34.95044020287446, 34.95044020287446, 0.0, 0.0, 0.0], [34.95044020287446, 120.15645743303865, 34.95044020287446, 0.0, 0.0, 0.0], [34.95044020287446, 34.95044020287446, 120.15645743303865, 0.0, 0.0, 0.0], [0.0, 0.0, 0.0, 38.39744536856024, 0.0, 0.0], [0.0, 0.0, 0.0, 0.0, 38.39744536856024, 0.0], [0.0, 0.0, 0.0, 0.0, 0.0, 38.39744536856024]], 'compliance_tensor': [[9.6, -2.2, -2.2, 0.0, 0.0, 0.0], [-2.2, 9.6, -2.2, 0.0, 0.0, 0.0], [-2.2, -2.2, 9.6, 0.0, 0.0, 0.0], [0.0, 0.0, 0.0, 26.0, 0.0, 0.0], [0.0, 0.0, 0.0, 0.0, 26.0, 0.0], [0.0, 0.0, 0.0, 0.0, 0.0, 26.0]], 'warnings': ['Contains a rare earth element'], 'nsites': 5}",0,40,63,0.01,0.24,99.2
79,mp-8044,V2PC,"{'V': 2.0, 'P': 1.0, 'C': 1.0}",0.10646944,5.394856628,"{'G_Reuss': 144.0, 'G_VRH': 149.0, 'G_Voigt': 155.0, 'G_Voigt_Reuss_Hill': 149.0, 'K_Reuss': 227.0, 'K_VRH': 227.0, 'K_Voigt': 228.0, 'K_Voigt_Reuss_Hill': 227.0, 'elastic_anisotropy': 0.4, 'elastic_tensor': [[379.0, 119.0, 165.0, 0.0, 0.0, 0.0], [119.0, 379.0, 165.0, 0.0, 0.0, 0.0], [165.0, 165.0, 392.0, 0.0, 0.0, 0.0], [0.0, 0.0, 0.0, 206.0, 0.0, 0.0], [0.0, 0.0, 0.0, 0.0, 206.0, 0.0], [0.0, 0.0, 0.0, 0.0, 0.0, 130.0]], 'homogeneous_poisson': 0.23, 'poisson_ratio': 0.23, 'universal_anisotropy': 0.4, 'elastic_tensor_original': [[378.4920259571318, 119.70836265513428, 164.7808922806062, 0.0, 0.0, 0.0], [120.34490923457075, 378.6481244039271, 165.55810427263395, 0.0, 0.0, 0.0], [165.213269986193, 165.21336114342282, 391.9705794443009, 0.0, 0.0, 0.0], [-8.916666933441366e-06, -3.175000095352665e-05, 0.00012644333713916048, 205.95113725441652, 0.0, 0.0], [-0.00018460300472609352, -0.00012912044098642374, 6.869403669945226e-05, 0.0, 206.0314361246011, 0.0], [-0.0001704202860708029, 9.263939851808173e-05, 9.998914738776998e-05, 0.0, 0.0, 130.32839325116842]], 'compliance_tensor': [[3.3, -0.5, -1.2, -0.0, 0.0, 0.0], [-0.5, 3.3, -1.2, -0.0, 0.0, 0.0], [-1.2, -1.2, 3.5, 0.0, 0.0, -0.0], [-0.0, -0.0, 0.0, 4.9, 0.0, -0.0], [0.0, 0.0, 0.0, 0.0, 4.9, 0.0], [0.0, 0.0, -0.0, -0.0, -0.0, 7.7]], 'warnings': [], 'nsites': 8}",0,149,227,0.4,0.23,366.54
80,mp-9960,Y3TlC,"{'Y': 3.0, 'Tl': 1.0, 'C': 1.0}",0.201398938,6.687686637,"{'G_Reuss': 63.0, 'G_VRH': 64.0, 'G_Voigt': 64.0, 'G_Voigt_Reuss_Hill': 64.0, 'K_Reuss': 75.0, 'K_VRH': 75.0, 'K_Voigt': 75.0, 'K_Voigt_Reuss_Hill': 75.0, 'elastic_anisotropy': 0.02, 'elastic_tensor': [[167.0, 29.0, 29.0, 0.0, 0.0, 0.0], [29.0, 167.0, 29.0, 0.0, 0.0, 0.0], [29.0, 29.0, 167.0, 0.0, 0.0, 0.0], [0.0, 0.0, 0.0, 60.0, 0.0, 0.0], [0.0, 0.0, 0.0, 0.0, 60.0, 0.0], [0.0, 0.0, 0.0, 0.0, 0.0, 60.0]], 'homogeneous_poisson': 0.17, 'poisson_ratio': 0.17, 'universal_anisotropy': 0.02, 'elastic_tensor_original': [[166.95502122117483, 29.195675322996145, 29.195675322996145, 0.0, 0.0, 0.0], [29.18401258110829, 166.94487044932734, 29.18401258110829, 0.0, 0.0, 0.0], [29.19305239102952, 29.19305239102952, 166.9532533921373, 0.0, 0.0, 0.0], [2.3539821656274937e-06, 9.128071823121854e-05, 2.4997424133319372e-05, 60.26994984728652, 0.0, 0.0], [-0.0005052872803436263, -0.0006289309250319084, -0.0004920940002613226, 0.0, 60.270064913931094, 0.0], [-5.006266576086919e-05, 3.9580637376554744e-05, 5.057736686073719e-05, 0.0, 0.0, 60.26988062390291]], 'compliance_tensor': [[6.3, -0.9, -0.9, -0.0, 0.0, 0.0], [-0.9, 6.3, -0.9, 0.0, -0.0, 0.0], [-0.9, -0.9, 6.3, 0.0, 0.0, -0.0], [-0.0, 0.0, 0.0, 16.6, 0.0, -0.0], [0.0, -0.0, 0.0, 0.0, 16.6, -0.0], [0.0, 0.0, -0.0, -0.0, -0.0, 16.6]], 'warnings': [], 'nsites': 5}",0,64,75,0.02,0.17,149.76
81,mp-999088,ThCoC2,"{'Th': 1.0, 'Co': 1.0, 'C': 2.0}",0.139732325,9.873036294,"{'G_Reuss': 91.0, 'G_VRH': 93.0, 'G_Voigt': 96.0, 'G_Voigt_Reuss_Hill': 93.0, 'K_Reuss': 182.0, 'K_VRH': 186.0, 'K_Voigt': 191.0, 'K_Voigt_Reuss_Hill': 186.0, 'elastic_anisotropy': 0.31, 'elastic_tensor': [[357.0, 188.0, 108.0, 0.0, 0.0, 0.0], [188.0, 298.0, 99.0, 0.0, 0.0, 0.0], [108.0, 99.0, 271.0, 0.0, 0.0, 0.0], [0.0, 0.0, 0.0, 88.0, 0.0, 0.0], [0.0, 0.0, 0.0, 0.0, 88.0, 0.0], [0.0, 0.0, 0.0, 0.0, 0.0, 126.0]], 'homogeneous_poisson': 0.29, 'poisson_ratio': 0.29, 'universal_anisotropy': 0.31, 'elastic_tensor_original': [[356.9661142055879, 195.0016910226436, 111.81715878762022, 0.0, 0.0, 0.0], [181.0789485827136, 297.6817807172475, 98.46246769235597, 0.0, 0.0, 0.0], [104.21469079311858, 98.93923557889337, 270.80117878285074, 0.0, 0.0, 0.0], [0.0, 0.0, 0.0, 87.51791204354997, 0.0, 0.0], [0.0, 0.0, 0.0, 0.0, 88.43599605486625, 0.0], [0.0, 0.0, 0.0, 0.0, 0.0, 126.30936522139856]], 'compliance_tensor': [[4.4, -2.5, -0.8, 0.0, 0.0, -0.0], [-2.5, 5.2, -0.9, 0.0, 0.0, 0.0], [-0.8, -0.9, 4.4, 0.0, 0.0, -0.0], [0.0, 0.0, 0.0, 11.4, 0.0, 0.0], [0.0, 0.0, 0.0, 0.0, 11.3, 0.0], [-0.0, 0.0, -0.0, 0.0, 0.0, 7.9]], 'warnings': ['Contains a rare earth element'], 'nsites': 4}",0,93,186,0.31,0.29,239.94
82,mp-10036,Ce3AlC,"{'Ce': 3.0, 'Al': 1.0, 'C': 1.0}",0.143382178,6.346866112,"{'G_Reuss': 42.0, 'G_VRH': 42.0, 'G_Voigt': 43.0, 'G_Voigt_Reuss_Hill': 42.0, 'K_Reuss': 81.0, 'K_VRH': 81.0, 'K_Voigt': 81.0, 'K_Voigt_Reuss_Hill': 81.0, 'elastic_anisotropy': 0.17, 'elastic_tensor': [[152.0, 46.0, 46.0, 0.0, 0.0, 0.0], [46.0, 152.0, 46.0, 0.0, 0.0, 0.0], [46.0, 46.0, 152.0, 0.0, 0.0, 0.0], [0.0, 0.0, 0.0, 36.0, 0.0, 0.0], [0.0, 0.0, 0.0, 0.0, 36.0, 0.0], [0.0, 0.0, 0.0, 0.0, 0.0, 36.0]], 'homogeneous_poisson': 0.28, 'poisson_ratio': 0.28, 'universal_anisotropy': 0.17, 'elastic_tensor_original': [[151.8910555270684, 46.13765555929395, 46.13765555929395, 0.0, 0.0, 0.0], [46.13765555929395, 151.8910555270684, 46.13765555929395, 0.0, 0.0, 0.0], [46.13765555929395, 46.13765555929395, 151.8910555270684, 0.0, 0.0, 0.0], [0.0, 0.0, 0.0, 36.44559627307975, 0.0, 0.0], [0.0, 0.0, 0.0, 0.0, 36.44559627307975, 0.0], [0.0, 0.0, 0.0, 0.0, 0.0, 36.44559627307975]], 'compliance_tensor': [[7.7, -1.8, -1.8, 0.0, 0.0, 0.0], [-1.8, 7.7, -1.8, 0.0, 0.0, 0.0], [-1.8, -1.8, 7.7, 0.0, 0.0, 0.0], [0.0, 0.0, 0.0, 27.4, 0.0, 0.0], [0.0, 0.0, 0.0, 0.0, 27.4, 0.0], [0.0, 0.0, 0.0, 0.0, 0.0, 27.4]], 'warnings': ['Contains a rare earth element'], 'nsites': 5}",0,42,81,0.17,0.28,107.52
83,mp-1025181,Tm2Cr2C3,"{'Tm': 2.0, 'Cr': 2.0, 'C': 3.0}",0.200402595,8.691772497,"{'G_Reuss': 72.0, 'G_VRH': 77.0, 'G_Voigt': 81.0, 'G_Voigt_Reuss_Hill': 77.0, 'K_Reuss': 166.0, 'K_VRH': 167.0, 'K_Voigt': 167.0, 'K_Voigt_Reuss_Hill': 167.0, 'elastic_anisotropy': 0.64, 'elastic_tensor': [[241.0, 118.0, 132.0, 0.0, -15.0, 0.0], [118.0, 242.0, 126.0, 0.0, 7.0, 0.0], [132.0, 126.0, 268.0, 0.0, 7.0, 0.0], [0.0, 0.0, 0.0, 53.0, 0.0, 5.0], [-15.0, 7.0, 7.0, 0.0, 120.0, 0.0], [0.0, 0.0, 0.0, 5.0, 0.0, 108.0]], 'homogeneous_poisson': 0.3, 'poisson_ratio': 0.3, 'universal_anisotropy': 0.64, 'elastic_tensor_original': [[240.5202775354236, 127.4900390978269, 136.05489939317656, 1.4000184212655035e-06, -14.421354354358543, -2.3800313161513556e-05], [109.5351851991091, 241.50882421794972, 133.2086879243668, -8.00001234301979e-07, 8.334938659769263, -1.100001697165221e-05], [128.7232248247947, 119.28505717421176, 267.7838240413437, -6.000054322847231e-07, 6.201391545699261, -1.2800115888740762e-05], [0.0, -1.0653744837051546e-06, 0.0, 53.1467935043642, 0.0, 5.349100261851344], [-16.244552961286498, 5.743862224149128, 7.7187784500063055, -1.1900049565701493e-05, 119.89979520274832, 1.8000074973329995e-06], [0.0, -2.1783795257798512e-05, 0.0, 4.705311555954115, 0.0, 108.22413256746253]], 'compliance_tensor': [[6.5, -2.0, -2.3, -0.0, 1.1, 0.0], [-2.0, 6.1, -1.9, -0.0, -0.5, 0.0], [-2.3, -1.9, 5.8, -0.0, -0.5, -0.0], [-0.0, -0.0, -0.0, 18.9, 0.0, -0.9], [1.1, -0.5, -0.5, 0.0, 8.5, -0.0], [0.0, 0.0, -0.0, -0.9, -0.0, 9.3]], 'warnings': ['Contains a rare earth element'], 'nsites': 7}",0,77,167,0.64,0.3,200.2
84,mp-1025266,Tb2Cr2C3,"{'Tb': 2.0, 'Cr': 2.0, 'C': 3.0}",0.159526965,7.969868448,"{'G_Reuss': 63.0, 'G_VRH': 68.0, 'G_Voigt': 73.0, 'G_Voigt_Reuss_Hill': 68.0, 'K_Reuss': 149.0, 'K_VRH': 149.0, 'K_Voigt': 150.0, 'K_Voigt_Reuss_Hill': 149.0, 'elastic_anisotropy': 0.81, 'elastic_tensor': [[222.0, 111.0, 121.0, 0.0, -13.0, 0.0], [111.0, 213.0, 106.0, 0.0, 2.0, 0.0], [121.0, 106.0, 236.0, 0.0, 8.0, 0.0], [0.0, 0.0, 0.0, 42.0, 0.0, 5.0], [-13.0, 2.0, 8.0, 0.0, 113.0, 0.0], [0.0, 0.0, 0.0, 5.0, 0.0, 97.0]], 'homogeneous_poisson': 0.3, 'poisson_ratio': 0.3, 'universal_anisotropy': 0.81, 'elastic_tensor_original': [[221.5137699455555, 100.30696875048325, 122.66737400754235, 1.2000023107170827e-06, -11.846467411484923, -2.200004236314652e-05], [122.5401079886213, 213.37152389514534, 113.53858378361195, 7.999994672025304e-07, 7.854484168934904, 1.2199991874838588e-05], [119.12845455653874, 97.94857504646544, 235.64792058742523, -1.000007484049168e-06, 9.930767321794685, -1.2000089808590015e-05], [0.0, 0.0, 0.0, 42.4240697733146, 0.0, 5.836515451715397], [-13.356363690922015, -3.9262495091431386, 6.586420647584442, -1.1299999738508082e-05, 112.8684950881239, 1.3999999676027712e-06], [0.0, 0.0, 0.0, 4.5017269799052295, 0.0, 97.33527969773603]], 'compliance_tensor': [[7.3, -2.5, -2.6, 0.0, 1.0, -0.0], [-2.5, 6.9, -1.8, 0.0, -0.3, -0.0], [-2.6, -1.8, 6.4, 0.0, -0.7, 0.0], [0.0, 0.0, 0.0, 23.7, -0.0, -1.3], [1.0, -0.3, -0.7, -0.0, 9.0, 0.0], [-0.0, -0.0, 0.0, -1.3, 0.0, 10.3]], 'warnings': ['Contains a rare earth element'], 'nsites': 7}",0,68,149,0.81,0.3,176.8
85,mp-1025379,Tb2B4C,"{'Tb': 2.0, 'B': 4.0, 'C': 1.0}",0.111601513,7.524539847,"{'G_Reuss': 117.0, 'G_VRH': 124.0, 'G_Voigt': 130.0, 'G_Voigt_Reuss_Hill': 124.0, 'K_Reuss': 162.0, 'K_VRH': 162.0, 'K_Voigt': 163.0, 'K_Voigt_Reuss_Hill': 162.0, 'elastic_anisotropy': 0.58, 'elastic_tensor': [[431.0, 63.0, 40.0, 0.0, 0.0, 0.0], [63.0, 291.0, 101.0, 0.0, 0.0, 0.0], [40.0, 101.0, 337.0, 0.0, 0.0, 0.0], [0.0, 0.0, 0.0, 152.0, 0.0, 0.0], [0.0, 0.0, 0.0, 0.0, 143.0, 0.0], [0.0, 0.0, 0.0, 0.0, 0.0, 71.0]], 'homogeneous_poisson': 0.2, 'poisson_ratio': 0.2, 'universal_anisotropy': 0.58, 'elastic_tensor_original': [[431.09638621189237, 58.489254239260404, 34.337240667389906, -1.5400032501160205e-05, 0.0, 0.0], [67.69209864681508, 290.7628698810173, 101.77067031368017, -7.580135075052703e-05, 0.0, 0.0], [44.7636690317327, 99.99064766572111, 337.4136999874958, -1.3200110767963995e-05, 0.0, 0.0], [0.0, 0.0, -4.0258935183477485e-05, 152.0247734645737, 0.0, 0.0], [0.0, 0.0, 0.0, -6.019714203640508e-09, 142.71745487190006, 0.0], [0.0, 0.0, 0.0, 1.241525133585677e-07, -9.437089235032257e-06, 71.27220724584356]], 'compliance_tensor': [[2.4, -0.5, -0.1, -0.0, -0.0, 0.0], [-0.5, 3.9, -1.1, 0.0, 0.0, 0.0], [-0.1, -1.1, 3.3, 0.0, -0.0, -0.0], [-0.0, 0.0, 0.0, 6.6, 0.0, 0.0], [-0.0, 0.0, -0.0, 0.0, 7.0, 0.0], [0.0, 0.0, -0.0, 0.0, 0.0, 14.0]], 'warnings': ['Contains a rare earth element'], 'nsites': 7}",0,124,162,0.58,0.2,297.6
86,mp-10270,ScCo3C,"{'Sc': 1.0, 'Co': 3.0, 'C': 1.0}",0.157408118,7.010072672,"{'G_Reuss': 96.0, 'G_VRH': 99.0, 'G_Voigt': 101.0, 'G_Voigt_Reuss_Hill': 99.0, 'K_Reuss': 214.0, 'K_VRH': 214.0, 'K_Voigt': 214.0, 'K_Voigt_Reuss_Hill': 214.0, 'elastic_anisotropy': 0.26, 'elastic_tensor': [[388.0, 128.0, 128.0, 0.0, 0.0, 0.0], [128.0, 388.0, 128.0, 0.0, 0.0, 0.0], [128.0, 128.0, 388.0, 0.0, 0.0, 0.0], [0.0, 0.0, 0.0, 82.0, 0.0, 0.0], [0.0, 0.0, 0.0, 0.0, 82.0, 0.0], [0.0, 0.0, 0.0, 0.0, 0.0, 82.0]], 'homogeneous_poisson': 0.3, 'poisson_ratio': 0.3, 'universal_anisotropy': 0.26, 'elastic_tensor_original': [[388.1775617130012, 127.6306051545123, 127.6306051545123, 0.0, 0.0, 0.0], [127.63232388115814, 388.1787466240829, 127.63232388115814, 0.0, 0.0, 0.0], [127.62816933800526, 127.62816933800526, 388.1737172811655, 0.0, 0.0, 0.0], [-0.00011000232943159718, -7.871253984518876e-05, 0.00019133641972818183, 81.9733407889464, 0.0, 0.0], [-0.0009301285746744853, -0.0008980917173509419, -0.0007998250353439012, 0.0, 81.97324944227557, 0.0], [-4.256295445074647e-05, -0.00020100955200477084, -8.603078389919866e-06, 0.0, 0.0, 81.97338465875828]], 'compliance_tensor': [[3.1, -0.8, -0.8, 0.0, -0.0, -0.0], [-0.8, 3.1, -0.8, -0.0, 0.0, -0.0], [-0.8, -0.8, 3.1, -0.0, 0.0, 0.0], [0.0, -0.0, -0.0, 12.2, -0.0, -0.0], [-0.0, 0.0, 0.0, -0.0, 12.2, 0.0], [-0.0, -0.0, 0.0, -0.0, 0.0, 12.2]], 'warnings': [], 'nsites': 5}",0,99,214,0.26,0.3,257.4
87,mp-1029784,Rb2CN2,"{'Rb': 2.0, 'C': 1.0, 'N': 2.0}",0.376134561,3.251033572,"{'G_Reuss': 7.0, 'G_VRH': 10.0, 'G_Voigt': 12.0, 'G_Voigt_Reuss_Hill': 10.0, 'K_Reuss': 25.0, 'K_VRH': 26.0, 'K_Voigt': 26.0, 'K_Voigt_Reuss_Hill': 26.0, 'elastic_anisotropy': 3.32, 'elastic_tensor': [[42.0, 12.0, 26.0, 0.0, -1.0, 0.0], [12.0, 45.0, 13.0, 0.0, 1.0, 0.0], [26.0, 13.0, 46.0, 0.0, 8.0, 0.0], [0.0, 0.0, 0.0, 6.0, 0.0, -4.0], [-1.0, 1.0, 8.0, 0.0, 19.0, 0.0], [0.0, 0.0, 0.0, -4.0, 0.0, 8.0]], 'homogeneous_poisson': 0.33, 'poisson_ratio': 0.33, 'universal_anisotropy': 3.32, 'elastic_tensor_original': [[45.305593653131574, 11.12634249695338, 13.942665291862344, -0.6700373060976494, 0.0, 0.0], [10.938111318919805, 45.9223422910528, 17.44496962215391, 4.3690022788046425, 0.0, 0.0], [12.919487015482545, 18.494247087706828, 58.81328083034295, -7.953962503102938, 0.0, 0.0], [-0.4758399221270121, 3.594363481826091, -8.393742998101546, 11.030367985680366, 0.0, 0.0], [-0.04624838766966405, -0.08228640595488065, -0.544283481834378, 0.26067833352727304, 3.90529262267413, 2.9345953886217075], [-0.00028014663622611655, -0.0006344833442184604, -0.001800750182865716, 0.0006410334138260319, 2.7105020846736663, 10.49866976449469]], 'compliance_tensor': [[40.3, -4.0, -23.7, 0.0, 11.4, 0.0], [-4.0, 24.4, -4.5, 0.0, 0.2, 0.0], [-23.7, -4.5, 39.1, 0.0, -16.7, 0.0], [0.0, 0.0, 0.0, 242.4, 0.0, 129.1], [11.4, 0.2, -16.7, 0.0, 58.8, 0.0], [0.0, 0.0, 0.0, 129.1, 0.0, 193.7]], 'warnings': [], 'nsites': 5}",0,10,26,3.32,0.33,26.6
88,mp-10408,K2CN2,"{'K': 2.0, 'C': 1.0, 'N': 2.0}",0.337835332,2.096868931,"{'G_Reuss': 11.0, 'G_VRH': 13.0, 'G_Voigt': 15.0, 'G_Voigt_Reuss_Hill': 13.0, 'K_Reuss': 30.0, 'K_VRH': 30.0, 'K_Voigt': 31.0, 'K_Voigt_Reuss_Hill': 30.0, 'elastic_anisotropy': 1.79, 'elastic_tensor': [[67.0, 15.0, 21.0, 0.0, -11.0, 0.0], [15.0, 54.0, 13.0, 0.0, -0.0, 0.0], [21.0, 13.0, 56.0, 0.0, 3.0, 0.0], [0.0, 0.0, 0.0, 14.0, 0.0, 2.0], [-11.0, -0.0, 3.0, 0.0, 13.0, 0.0], [0.0, 0.0, 0.0, 2.0, 0.0, 7.0]], 'homogeneous_poisson': 0.31, 'poisson_ratio': 0.31, 'universal_anisotropy': 1.79, 'elastic_tensor_original': [[53.71418858251778, 13.292693465701504, 14.862991866466981, 0.019115609545189725, 0.0, 0.0], [13.553504332747842, 56.2263563856754, 20.84348249725702, 3.60097510675918, 0.0, 0.0], [14.140627110673874, 22.015125358773137, 67.24482178892094, -10.909882346658087, 0.0, 0.0], [-0.19060435494354766, 3.1002988452252445, -11.662243214583839, 13.0463100322168, 0.0, 0.0], [-0.000858413099522613, 0.025195324234168606, 0.16967511422443732, -0.07081658369615897, 6.518461027687077, 2.4517788776132616], [0.0002565964649695823, 0.00022238317920088592, 0.0001159233421275418, 4.2093245394318254e-05, 1.9552957295222548, 14.094821248244356]], 'compliance_tensor': [[22.1, -3.7, -8.9, 0.0, 21.4, 0.0], [-3.7, 20.5, -3.3, 0.0, -2.2, 0.0], [-8.9, -3.3, 22.8, 0.0, -13.5, 0.0], [0.0, 0.0, 0.0, 75.0, 0.0, -25.5], [21.4, -2.2, -13.5, 0.0, 98.3, 0.0], [0.0, 0.0, 0.0, -25.5, 0.0, 161.9]], 'warnings': [], 'nsites': 5}",0,13,30,1.79,0.31,34.06
89,mp-10606,Sm3TlC,"{'Sm': 3.0, 'Tl': 1.0, 'C': 1.0}",0.256997686,8.540946131,"{'G_Reuss': 48.0, 'G_VRH': 48.0, 'G_Voigt': 48.0, 'G_Voigt_Reuss_Hill': 48.0, 'K_Reuss': 62.0, 'K_VRH': 62.0, 'K_Voigt': 62.0, 'K_Voigt_Reuss_Hill': 62.0, 'elastic_anisotropy': 0.0, 'elastic_tensor': [[125.0, 30.0, 30.0, 0.0, 0.0, 0.0], [30.0, 125.0, 30.0, 0.0, 0.0, 0.0], [30.0, 30.0, 125.0, 0.0, 0.0, 0.0], [0.0, 0.0, 0.0, 48.0, 0.0, 0.0], [0.0, 0.0, 0.0, 0.0, 48.0, 0.0], [0.0, 0.0, 0.0, 0.0, 0.0, 48.0]], 'homogeneous_poisson': 0.19, 'poisson_ratio': 0.19, 'universal_anisotropy': 0.0, 'elastic_tensor_original': [[125.36677772795693, 30.053650951156268, 30.053650951156268, 0.0, 0.0, 0.0], [30.053650951156268, 125.36677772795693, 30.053650951156268, 0.0, 0.0, 0.0], [30.053650951156268, 30.053650951156268, 125.36677772795693, 0.0, 0.0, 0.0], [0.0, 0.0, 0.0, 47.88456721735066, 0.0, 0.0], [0.0, 0.0, 0.0, 0.0, 47.88456721735066, 0.0], [0.0, 0.0, 0.0, 0.0, 0.0, 47.88456721735066]], 'compliance_tensor': [[8.8, -1.7, -1.7, 0.0, 0.0, 0.0], [-1.7, 8.8, -1.7, 0.0, 0.0, 0.0], [-1.7, -1.7, 8.8, 0.0, 0.0, 0.0], [0.0, 0.0, 0.0, 20.9, 0.0, 0.0], [0.0, 0.0, 0.0, 0.0, 20.9, 0.0], [0.0, 0.0, 0.0, 0.0, 0.0, 20.9]], 'warnings': ['Contains a rare earth element'], 'nsites': 5}",0,48,62,0,0.19,114.24
90,mp-10854,Tb(BC)2,"{'Tb': 1.0, 'B': 2.0, 'C': 2.0}",0.092162679,6.571371003,"{'G_Reuss': 119.0, 'G_VRH': 126.0, 'G_Voigt': 134.0, 'G_Voigt_Reuss_Hill': 126.0, 'K_Reuss': 158.0, 'K_VRH': 180.0, 'K_Voigt': 201.0, 'K_Voigt_Reuss_Hill': 180.0, 'elastic_anisotropy': 0.88, 'elastic_tensor': [[222.0, 48.0, 48.0, 0.0, 0.0, 0.0], [48.0, 503.0, 195.0, 0.0, 0.0, 0.0], [48.0, 195.0, 503.0, 0.0, 0.0, 0.0], [0.0, 0.0, 0.0, 169.0, 0.0, 0.0], [0.0, 0.0, 0.0, 0.0, 93.0, 0.0], [0.0, 0.0, 0.0, 0.0, 0.0, 93.0]], 'homogeneous_poisson': 0.22, 'poisson_ratio': 0.22, 'universal_anisotropy': 0.88, 'elastic_tensor_original': [[221.69916648654893, 46.97792096479063, 46.97792096479063, 0.0, 0.0, 0.0], [48.50695264669087, 503.3306456485358, 195.17790194264714, 0.0, 0.0, 0.0], [48.50695264669086, 195.17790194264714, 503.3306456485358, 0.0, 0.0, 0.0], [0.0, 1.693817320302146, -1.6938173203021456, 169.37361681406716, 0.0, 0.0], [0.0, 0.0, 0.0, 0.0, 92.8334286518168, 0.0], [0.0, 0.0, 0.0, 0.0, 0.0, 92.8334286518168]], 'compliance_tensor': [[4.647426250066621, -0.3176474429959388, -0.31764744299593906, -5.205348854812145e-20, 0.0, 0.0], [-0.3176474429959388, 2.3600937293840505, -0.8850501819563381, 1.2085909094661043e-19, 0.0, 0.0], [-0.317647442995939, -0.8850501819563381, 2.3600937293840505, 1.2085909094661043e-19, 0.0, 0.0], [-5.205348854812145e-20, 1.2085909094661043e-19, 1.2085909094661043e-19, 5.904107255959276, 0.0, 0.0], [0.0, 0.0, 0.0, 0.0, 10.771981758323536, 0.0], [0.0, 0.0, 0.0, 0.0, 0.0, 10.771981758323536]], 'warnings': ['Structure contains a rare earth element'], 'nsites': 10}",0,126,180,0.88,0.22,307.44