,mp_id,Formula,Composition,IPF,Density,Elastic_Tensor,E_above_Hull,G_VRH,K_VRH,Elastic_Anisotropy,poisson_ratio,Y_Modulus
156,mp-10046,V2AsC,"{'V': 2.0, 'As': 1.0, 'C': 1.0}",0.109822295,6.552641391,"{'G_Reuss': 110.0, 'G_VRH': 115.0, 'G_Voigt': 120.0, 'G_Voigt_Reuss_Hill': 115.0, 'K_Reuss': 203.0, 'K_VRH': 203.0, 'K_Voigt': 203.0, 'K_Voigt_Reuss_Hill': 203.0, 'elastic_anisotropy': 0.46, 'elastic_tensor': [[326.0, 118.0, 157.0, 0.0, 0.0, 0.0], [118.0, 326.0, 157.0, 0.0, 0.0, 0.0], [157.0, 157.0, 311.0, 0.0, 0.0, 0.0], [0.0, 0.0, 0.0, 159.0, 0.0, 0.0], [0.0, 0.0, 0.0, 0.0, 159.0, 0.0], [0.0, 0.0, 0.0, 0.0, 0.0, 104.0]], 'homogeneous_poisson': 0.26, 'poisson_ratio': 0.26, 'universal_anisotropy': 0.46, 'elastic_tensor_original': [[327.5652467673968, 117.30336546107051, 158.97554859666414, 0.0, 0.0, 0.0], [115.46600122750178, 328.5046807850803, 158.49589820876747, 0.0, 0.0, 0.0], [156.00049052094127, 156.00045400514347, 310.57790122653245, 0.0, 0.0, 0.0], [0.0003468959777575153, 0.0005067189936918043, 9.586314295900416e-05, 158.9090961477592, 0.0, 0.0], [-7.168485525638917e-05, 0.0003061475411962009, 0.0001400778339657168, 0.0, 159.17845499850606, 0.0], [0.0001622101333952738, 1.7843341703749706e-05, 0.00020749686996625303, 0.0, 0.0, 102.6136567015765]], 'compliance_tensor': [[4.2, -0.6, -1.8, -0.0, -0.0, -0.0], [-0.6, 4.2, -1.8, -0.0, 0.0, -0.0], [-1.8, -1.8, 5.0, 0.0, 0.0, 0.0], [-0.0, -0.0, 0.0, 6.3, -0.0, -0.0], [0.0, 0.0, 0.0, -0.0, 6.3, 0.0], [-0.0, -0.0, 0.0, 0.0, 0.0, 9.6]], 'warnings': [], 'nsites': 8}",0,115,203,0.46,0.26,289.8
157,mp-1018048,LaNiC2,"{'La': 1.0, 'Ni': 1.0, 'C': 2.0}",0.155330063,6.595556733,"{'G_Reuss': 75.0, 'G_VRH': 77.0, 'G_Voigt': 79.0, 'G_Voigt_Reuss_Hill': 77.0, 'K_Reuss': 120.0, 'K_VRH': 125.0, 'K_Voigt': 130.0, 'K_Voigt_Reuss_Hill': 125.0, 'elastic_anisotropy': 0.36, 'elastic_tensor': [[288.0, 108.0, 61.0, 0.0, 0.0, 0.0], [108.0, 241.0, 71.0, 0.0, 0.0, 0.0], [61.0, 71.0, 164.0, 0.0, 0.0, 0.0], [0.0, 0.0, 0.0, 76.0, 0.0, 0.0], [0.0, 0.0, 0.0, 0.0, 63.0, 0.0], [0.0, 0.0, 0.0, 0.0, 0.0, 106.0]], 'homogeneous_poisson': 0.24, 'poisson_ratio': 0.24, 'universal_anisotropy': 0.36, 'elastic_tensor_original': [[287.6894682609338, 121.57856133978454, 53.36294687170685, 0.0, 0.0, 0.0], [93.8404322921249, 240.78738373311506, 57.86642443284249, 0.0, 0.0, 0.0], [69.54261462850288, 83.34427663587255, 164.08383288755448, 0.0, 0.0, 0.0], [0.0, 0.0, 0.0, 75.80304633679722, 0.0, 0.0], [0.0, 0.0, 0.0, 0.0, 63.35824371161784, 0.0], [0.0, 0.0, 0.0, 0.0, 0.0, 105.76954661688234]], 'compliance_tensor': [[4.3, -1.7, -0.9, 0.0, 0.0, 0.0], [-1.7, 5.4, -1.7, 0.0, 0.0, 0.0], [-0.9, -1.7, 7.2, 0.0, 0.0, -0.0], [0.0, 0.0, 0.0, 13.2, 0.0, 0.0], [0.0, 0.0, 0.0, 0.0, 15.8, 0.0], [0.0, 0.0, -0.0, 0.0, 0.0, 9.5]], 'warnings': ['Contains a rare earth element'], 'nsites': 4}",0,77,125,0.36,0.24,190.96
158,mp-10289,Ca(BC)2,"{'Ca': 1.0, 'B': 2.0, 'C': 2.0}",0.130896342,2.658159976,"{'G_Reuss': 79.0, 'G_VRH': 95.0, 'G_Voigt': 110.0, 'G_Voigt_Reuss_Hill': 95.0, 'K_Reuss': 104.0, 'K_VRH': 135.0, 'K_Voigt': 165.0, 'K_Voigt_Reuss_Hill': 135.0, 'elastic_anisotropy': 2.57, 'elastic_tensor': [[420.0, 221.0, 16.0, 0.0, 0.0, 0.0], [221.0, 420.0, 16.0, 0.0, 0.0, 0.0], [16.0, 16.0, 141.0, 0.0, 0.0, 0.0], [0.0, 0.0, 0.0, 54.0, 0.0, 0.0], [0.0, 0.0, 0.0, 0.0, 54.0, 0.0], [0.0, 0.0, 0.0, 0.0, 0.0, 202.0]], 'homogeneous_poisson': 0.22, 'poisson_ratio': 0.22, 'universal_anisotropy': 2.57, 'elastic_tensor_original': [[419.95436175225717, 221.05703643722507, 15.53351722448628, 0.0, 0.0, 0.0], [221.11203997627013, 419.9971356093924, 15.49303462853935, 0.0, 0.0, 0.0], [15.581272921888464, 15.581272921888464, 141.0495406045461, 0.0, 0.0, 0.0], [-0.009463043762301998, 0.006012330585726512, 0.004005469282154964, 53.62620426184208, 0.0, 0.0], [-0.006073277190751189, 0.009546087011644997, -0.003972265982404431, 0.0, 53.62623074514864, 0.0], [-7.950491650997317e-05, -0.0005877260494795965, -0.0004289078829254062, 0.0, 0.0, 201.93827217238984]], 'compliance_tensor': [[3.298087425129878, -1.7297868465204362, -0.17286691874902682, -3.717804143374662e-16, 1.0504986816173272e-38, 8.798576755751009e-23], [-1.7297868465204365, 3.298087425129878, -0.17286691874902685, -1.397578948906547e-15, -1.0897689671660824e-38, -9.127489706968637e-23], [-0.17286691874902685, -0.17286691874902685, 7.127816329923664, 4.830954744625736e-16, 4.328591950930033e-41, 3.625463714618673e-25], [-3.7178041433746597e-16, -1.3975789489065472e-15, 4.830954744625736e-16, 18.64759527249559, -2.612615739449404e-54, -2.1882274122836577e-38], [1.0504986816173278e-38, -1.0897689671660828e-38, 4.3285919509300365e-41, -2.612615739449402e-54, 18.64759527249559, -1.6351731032614631e-15], [8.79857675575101e-23, -9.127489706968638e-23, 3.6254637146186726e-25, -2.1882274122836582e-38, -1.6351731032614631e-15, 4.95200830056783]], 'warnings': [], 'nsites': 10}",0,95,135,2.57,0.22,231.8
159,mp-10716,YbRh3C,"{'Yb': 1.0, 'Rh': 3.0, 'C': 1.0}",0.150501244,11.59249336,"{'G_Reuss': 78.0, 'G_VRH': 80.0, 'G_Voigt': 82.0, 'G_Voigt_Reuss_Hill': 80.0, 'K_Reuss': 191.0, 'K_VRH': 191.0, 'K_Voigt': 191.0, 'K_Voigt_Reuss_Hill': 191.0, 'elastic_anisotropy': 0.23, 'elastic_tensor': [[330.0, 121.0, 121.0, 0.0, 0.0, 0.0], [121.0, 330.0, 121.0, 0.0, 0.0, 0.0], [121.0, 121.0, 330.0, 0.0, 0.0, 0.0], [0.0, 0.0, 0.0, 67.0, 0.0, 0.0], [0.0, 0.0, 0.0, 0.0, 67.0, 0.0], [0.0, 0.0, 0.0, 0.0, 0.0, 67.0]], 'homogeneous_poisson': 0.32, 'poisson_ratio': 0.32, 'universal_anisotropy': 0.23, 'elastic_tensor_original': [[329.5219055630562, 121.3916459788845, 121.3916459788845, 0.0, 0.0, 0.0], [121.3916459788845, 329.5219055630562, 121.3916459788845, 0.0, 0.0, 0.0], [121.3916459788845, 121.3916459788845, 329.5219055630562, 0.0, 0.0, 0.0], [0.0, 0.0, 0.0, 67.2033884755004, 0.0, 0.0], [0.0, 0.0, 0.0, 0.0, 67.2033884755004, 0.0], [0.0, 0.0, 0.0, 0.0, 0.0, 67.2033884755004]], 'compliance_tensor': [[3.8, -1.0, -1.0, 0.0, 0.0, 0.0], [-1.0, 3.8, -1.0, 0.0, 0.0, 0.0], [-1.0, -1.0, 3.8, 0.0, 0.0, 0.0], [0.0, 0.0, 0.0, 14.9, 0.0, 0.0], [0.0, 0.0, 0.0, 0.0, 14.9, 0.0], [0.0, 0.0, 0.0, 0.0, 0.0, 14.9]], 'warnings': ['Contains a rare earth element'], 'nsites': 5}",0,80,191,0.23,0.32,211.2
160,mp-10853,Pr(BC)2,"{'Pr': 1.0, 'B': 2.0, 'C': 2.0}",0.102160733,5.463420048,"{'G_Reuss': 114.0, 'G_VRH': 120.0, 'G_Voigt': 127.0, 'G_Voigt_Reuss_Hill': 120.0, 'K_Reuss': 145.0, 'K_VRH': 162.0, 'K_Voigt': 180.0, 'K_Voigt_Reuss_Hill': 162.0, 'elastic_anisotropy': 0.81, 'elastic_tensor': [[200.0, 51.0, 51.0, 0.0, 0.0, 0.0], [51.0, 438.0, 170.0, 0.0, 0.0, 0.0], [51.0, 170.0, 438.0, 0.0, 0.0, 0.0], [0.0, 0.0, 0.0, 181.0, 0.0, 0.0], [0.0, 0.0, 0.0, 0.0, 93.0, 0.0], [0.0, 0.0, 0.0, 0.0, 0.0, 93.0]], 'homogeneous_poisson': 0.2, 'poisson_ratio': 0.2, 'universal_anisotropy': 0.81, 'elastic_tensor_original': [[199.67902853135453, 53.410701293745994, 53.410701293745994, 0.0, 0.0, 0.0], [48.80043209287296, 437.92199039170856, 169.5117995733506, 0.0, 0.0, 0.0], [48.80043209287296, 169.5117995733506, 437.92199039170856, 0.0, 0.0, 0.0], [0.0, 1.8117803727250243, -1.811780372725024, 181.1675330570175, 0.0, 0.0], [0.0, 0.0, 0.0, 0.0, 92.67182526510854, 0.0], [0.0, 0.0, 0.0, 0.0, 0.0, 92.67182526510854]], 'compliance_tensor': [[5.233419892528714, -0.4403062420467313, -0.4403062420467314, 1.011849611429708e-19, 0.0, 0.0], [-0.4403062420467313, 2.722999988491577, -1.0026409678040549, -5.497860833938594e-20, 0.0, 0.0], [-0.4403062420467314, -1.0026409678040549, 2.7229999884915776, -3.403700014169824e-19, 0.0, 0.0], [1.0118496114297081e-19, -5.497860833938592e-20, -3.4037000141698244e-19, 5.519752811809155, 0.0, 0.0], [0.0, 0.0, 0.0, 0.0, 10.790766202556991, 0.0], [0.0, 0.0, 0.0, 0.0, 0.0, 10.790766202556991]], 'warnings': ['Structure contains a rare earth element'], 'nsites': 10}",0,120,162,0.81,0.2,288
161,mp-12537,Ti2GaC,"{'Ti': 2.0, 'Ga': 1.0, 'C': 1.0}",0.128972264,5.332772545,"{'G_Reuss': 108.0, 'G_VRH': 108.0, 'G_Voigt': 109.0, 'G_Voigt_Reuss_Hill': 108.0, 'K_Reuss': 139.0, 'K_VRH': 139.0, 'K_Voigt': 139.0, 'K_Voigt_Reuss_Hill': 139.0, 'elastic_anisotropy': 0.04, 'elastic_tensor': [[304.0, 67.0, 62.0, 0.0, 0.0, 0.0], [67.0, 304.0, 62.0, 0.0, 0.0, 0.0], [62.0, 62.0, 264.0, 0.0, 0.0, 0.0], [0.0, 0.0, 0.0, 99.0, 0.0, 0.0], [0.0, 0.0, 0.0, 0.0, 99.0, 0.0], [0.0, 0.0, 0.0, 0.0, 0.0, 118.0]], 'homogeneous_poisson': 0.19, 'poisson_ratio': 0.19, 'universal_anisotropy': 0.04, 'elastic_tensor_original': [[304.87142952012607, 67.04885773029673, 61.371538554615775, 0.0, 0.0, 0.0], [66.50542701141127, 303.8620671521255, 60.72993834631542, 0.0, 0.0, 0.0], [62.56173732826812, 62.561731528922536, 264.3863407306096, 0.0, 0.0, 0.0], [-0.00014566989458915288, -0.00020041671114111897, 1.2966534584577654e-05, 98.8786002004871, 0.0, 0.0], [6.843972581227172e-05, 9.646542073169629e-05, -8.440121590266849e-05, 0.0, 99.21934724170148, 0.0], [9.181043365782963e-05, 0.00019291981153699863, 0.00024799594176478995, 0.0, 0.0, 117.39838527898394]], 'compliance_tensor': [[3.6, -0.7, -0.7, -0.0, -0.0, 0.0], [-0.7, 3.6, -0.7, -0.0, -0.0, 0.0], [-0.7, -0.7, 4.1, 0.0, -0.0, -0.0], [-0.0, -0.0, 0.0, 10.1, 0.0, 0.0], [-0.0, -0.0, -0.0, 0.0, 10.1, 0.0], [0.0, 0.0, -0.0, 0.0, 0.0, 8.5]], 'warnings': [], 'nsites': 8}",0,108,139,0.04,0.19,257.04
162,mp-13501,ErCoC2,"{'Er': 1.0, 'Co': 1.0, 'C': 2.0}",0.14203071,8.803426024,"{'G_Reuss': 95.0, 'G_VRH': 99.0, 'G_Voigt': 102.0, 'G_Voigt_Reuss_Hill': 99.0, 'K_Reuss': 164.0, 'K_VRH': 173.0, 'K_Voigt': 183.0, 'K_Voigt_Reuss_Hill': 173.0, 'elastic_anisotropy': 0.45, 'elastic_tensor': [[405.0, 176.0, 73.0, 0.0, 0.0, 0.0], [176.0, 332.0, 93.0, 0.0, 0.0, 0.0], [73.0, 93.0, 223.0, 0.0, 0.0, 0.0], [0.0, 0.0, 0.0, 84.0, 0.0, 0.0], [0.0, 0.0, 0.0, 0.0, 83.0, 0.0], [0.0, 0.0, 0.0, 0.0, 0.0, 136.0]], 'homogeneous_poisson': 0.26, 'poisson_ratio': 0.26, 'universal_anisotropy': 0.45, 'elastic_tensor_original': [[404.7136662009642, 176.45146848166382, 73.34597441992713, 0.0, 0.0, 0.0], [175.68942400019662, 331.99095124262345, 92.61053318970795, 0.0, 0.0, 0.0], [73.28190012218661, 92.91641832606206, 223.29227398004662, 0.0, 0.0, 0.0], [-0.00010894680493253856, -1.0906680507604974e-05, -6.020340973768701e-05, 83.98449400585326, 0.0, 0.0], [-4.672316726860785e-05, -5.951664595361391e-05, -4.361348757534068e-05, 0.0, 82.66690781037397, 0.0], [3.820684114202606e-05, 8.798691308662344e-05, -4.159332429474661e-05, 0.0, 0.0, 135.77370017364575]], 'compliance_tensor': [[3.2, -1.6, -0.4, 0.0, 0.0, 0.0], [-1.6, 4.2, -1.2, 0.0, 0.0, 0.0], [-0.4, -1.2, 5.1, 0.0, 0.0, 0.0], [0.0, 0.0, 0.0, 11.9, 0.0, 0.0], [0.0, 0.0, 0.0, 0.0, 12.1, 0.0], [0.0, 0.0, 0.0, 0.0, 0.0, 7.4]], 'warnings': ['Contains a rare earth element'], 'nsites': 4}",0,99,173,0.45,0.26,249.48
163,mp-15856,DyRh3C,"{'Dy': 1.0, 'Rh': 3.0, 'C': 1.0}",0.15534071,10.96360491,"{'G_Reuss': 78.0, 'G_VRH': 78.0, 'G_Voigt': 78.0, 'G_Voigt_Reuss_Hill': 78.0, 'K_Reuss': 200.0, 'K_VRH': 200.0, 'K_Voigt': 200.0, 'K_Voigt_Reuss_Hill': 200.0, 'elastic_anisotropy': 0.0, 'elastic_tensor': [[306.0, 147.0, 147.0, 0.0, 0.0, 0.0], [147.0, 306.0, 147.0, 0.0, 0.0, 0.0], [147.0, 147.0, 306.0, 0.0, 0.0, 0.0], [0.0, 0.0, 0.0, 78.0, 0.0, 0.0], [0.0, 0.0, 0.0, 0.0, 78.0, 0.0], [0.0, 0.0, 0.0, 0.0, 0.0, 78.0]], 'homogeneous_poisson': 0.33, 'poisson_ratio': 0.33, 'universal_anisotropy': 0.0, 'elastic_tensor_original': [[305.9106045720064, 146.64149486896667, 146.64149486896667, 0.0, 0.0, 0.0], [146.64149486896667, 305.9106045720064, 146.64149486896667, 0.0, 0.0, 0.0], [146.64149486896667, 146.64149486896667, 305.9106045720064, 0.0, 0.0, 0.0], [0.0, 0.0, 0.0, 77.56021176597159, 0.0, 0.0], [0.0, 0.0, 0.0, 0.0, 77.56021176597159, 0.0], [0.0, 0.0, 0.0, 0.0, 0.0, 77.56021176597159]], 'compliance_tensor': [[4.7, -1.5, -1.5, 0.0, 0.0, 0.0], [-1.5, 4.7, -1.5, 0.0, 0.0, 0.0], [-1.5, -1.5, 4.7, 0.0, 0.0, 0.0], [0.0, 0.0, 0.0, 12.9, 0.0, 0.0], [0.0, 0.0, 0.0, 0.0, 12.9, 0.0], [0.0, 0.0, 0.0, 0.0, 0.0, 12.9]], 'warnings': ['Contains a rare earth element'], 'nsites': 5}",0,78,200,0,0.33,207.48
164,mp-19147,NiCO3,"{'Ni': 1.0, 'C': 1.0, 'O': 3.0}",0.578354853,4.230353742,"{'G_Reuss': 65.0, 'G_VRH': 68.0, 'G_Voigt': 72.0, 'G_Voigt_Reuss_Hill': 68.0, 'K_Reuss': 120.0, 'K_VRH': 125.0, 'K_Voigt': 130.0, 'K_Voigt_Reuss_Hill': 125.0, 'elastic_anisotropy': 0.64, 'elastic_tensor': [[271.0, 90.0, 71.0, 17.0, 0.0, 0.0], [90.0, 271.0, 71.0, -17.0, 0.0, 0.0], [71.0, 71.0, 160.0, 0.0, 0.0, 0.0], [17.0, -17.0, 0.0, 56.0, 0.0, 0.0], [0.0, 0.0, 0.0, 0.0, 56.0, 17.0], [0.0, 0.0, 0.0, 0.0, 17.0, 90.0]], 'homogeneous_poisson': 0.27, 'poisson_ratio': 0.27, 'universal_anisotropy': 0.64, 'elastic_tensor_original': [[271.38491195976195, 89.83323917689461, 69.7328944813335, -16.83800190627127, 0.0, 0.0], [89.69075716125212, 270.9565131946783, 69.3052105484978, 16.789734996687727, 0.0, 0.0], [72.5000490467994, 72.50004486698708, 159.91515239165625, 0.0, 0.0, 0.0], [-17.132573402550968, 16.38345389253381, -0.38140923255200504, 56.470674830244775, 0.0, 0.0], [0.0016906053676060107, -0.004906106230147708, 0.0008439793514872379, -0.0013455256327648626, 56.41275278910919, -16.74295144804997], [0.00011610990734365394, -1.9846650828421632e-05, 2.0289983807923763e-05, 1.6536653469901263e-05, -17.02488485714157, 90.0815870497948]], 'compliance_tensor': [[4.6, -1.2, -1.5, -1.7, 0.0, 0.0], [-1.2, 4.6, -1.5, 1.7, -0.0, 0.0], [-1.5, -1.5, 7.6, -0.0, 0.0, -0.0], [-1.7, 1.7, -0.0, 18.8, 0.0, -0.0], [-0.0, -0.0, 0.0, 0.0, 18.8, -3.5], [0.0, 0.0, -0.0, -0.0, -3.5, 11.7]], 'warnings': [], 'nsites': 10}",0,68,125,0.64,0.27,172.72
165,mp-19754,TmCoC,"{'Tm': 1.0, 'Co': 1.0, 'C': 1.0}",0.173001706,9.172724085,"{'G_Reuss': 51.0, 'G_VRH': 61.0, 'G_Voigt': 70.0, 'G_Voigt_Reuss_Hill': 61.0, 'K_Reuss': 139.0, 'K_VRH': 142.0, 'K_Voigt': 145.0, 'K_Voigt_Reuss_Hill': 142.0, 'elastic_anisotropy': 1.92, 'elastic_tensor': [[349.0, 51.0, 75.0, 0.0, 0.0, 0.0], [51.0, 349.0, 75.0, 0.0, 0.0, 0.0], [75.0, 75.0, 206.0, 0.0, 0.0, 0.0], [0.0, 0.0, 0.0, 43.0, 0.0, 0.0], [0.0, 0.0, 0.0, 0.0, 43.0, 0.0], [0.0, 0.0, 0.0, 0.0, 0.0, 31.0]], 'homogeneous_poisson': 0.31, 'poisson_ratio': 0.31, 'universal_anisotropy': 1.92, 'elastic_tensor_original': [[348.8316809419054, 51.42394970205466, 73.55862640390708, 0.0, 0.0, 0.0], [51.42394970205466, 348.8316809419054, 73.55862640390708, 0.0, 0.0, 0.0], [75.44520773829905, 75.44520773829905, 205.70816721912593, 0.0, 0.0, 0.0], [0.0, 0.0, 0.0, 42.76511184015942, 0.0, 0.0], [0.0, 0.0, 0.0, 0.0, 42.76511184015942, 0.0], [0.308939677570851, -0.3089396775708515, 0.0, 0.0, 0.0, 30.892559649894736]], 'compliance_tensor': [[3.1, -0.2, -1.0, 0.0, 0.0, -0.0], [-0.2, 3.1, -1.0, 0.0, 0.0, 0.0], [-1.0, -1.0, 5.6, 0.0, 0.0, -0.0], [0.0, 0.0, 0.0, 23.4, 0.0, 0.0], [0.0, 0.0, 0.0, 0.0, 23.4, 0.0], [-0.0, 0.0, -0.0, 0.0, 0.0, 32.4]], 'warnings': ['Contains a rare earth element'], 'nsites': 6}",0,61,142,1.92,0.31,159.82
166,mp-19817,Y3InC,"{'Y': 3.0, 'In': 1.0, 'C': 1.0}",0.148014133,5.456268402,"{'G_Reuss': 63.0, 'G_VRH': 63.0, 'G_Voigt': 63.0, 'G_Voigt_Reuss_Hill': 63.0, 'K_Reuss': 77.0, 'K_VRH': 77.0, 'K_Voigt': 77.0, 'K_Voigt_Reuss_Hill': 77.0, 'elastic_anisotropy': 0.01, 'elastic_tensor': [[166.0, 32.0, 32.0, 0.0, 0.0, 0.0], [32.0, 166.0, 32.0, 0.0, 0.0, 0.0], [32.0, 32.0, 166.0, 0.0, 0.0, 0.0], [0.0, 0.0, 0.0, 61.0, 0.0, 0.0], [0.0, 0.0, 0.0, 0.0, 61.0, 0.0], [0.0, 0.0, 0.0, 0.0, 0.0, 61.0]], 'homogeneous_poisson': 0.18, 'poisson_ratio': 0.18, 'universal_anisotropy': 0.01, 'elastic_tensor_original': [[165.67253386041475, 31.89367956096979, 31.89367956096979, 0.0, 0.0, 0.0], [31.8876481957907, 165.66797905796344, 31.8876481957907, 0.0, 0.0, 0.0], [32.14584741579171, 32.14584741579171, 165.9273217813014, 0.0, 0.0, 0.0], [-0.02858298814182792, -0.02907781422501498, -0.03019869974755494, 61.01972274721445, 0.0, 0.0], [0.00012336011603812598, 4.1506868084011695e-05, 0.00010993320557686705, 0.0, 61.02011172669335, 0.0], [0.028687607132450655, 0.029752789193317523, 0.028355924307750073, 0.0, 0.0, 61.019754033908605]], 'compliance_tensor': [[6.4, -1.0, -1.0, 0.0, 0.0, -0.0], [-1.0, 6.4, -1.0, -0.0, 0.0, 0.0], [-1.0, -1.0, 6.4, 0.0, -0.0, 0.0], [0.0, -0.0, 0.0, 16.4, -0.0, -0.0], [0.0, 0.0, -0.0, -0.0, 16.4, -0.0], [-0.0, 0.0, 0.0, -0.0, -0.0, 16.4]], 'warnings': [], 'nsites': 5}",0,63,77,0.01,0.18,148.68
167,mp-19835,Nb2InC,"{'Nb': 2.0, 'In': 1.0, 'C': 1.0}",0.127333601,8.050504584,"{'G_Reuss': 96.0, 'G_VRH': 97.0, 'G_Voigt': 97.0, 'G_Voigt_Reuss_Hill': 97.0, 'K_Reuss': 158.0, 'K_VRH': 158.0, 'K_Voigt': 158.0, 'K_Voigt_Reuss_Hill': 158.0, 'elastic_anisotropy': 0.07, 'elastic_tensor': [[290.0, 77.0, 106.0, 0.0, 0.0, 0.0], [77.0, 290.0, 106.0, 0.0, 0.0, 0.0], [106.0, 106.0, 263.0, 0.0, 0.0, 0.0], [0.0, 0.0, 0.0, 98.0, 0.0, 0.0], [0.0, 0.0, 0.0, 0.0, 98.0, 0.0], [0.0, 0.0, 0.0, 0.0, 0.0, 106.0]], 'homogeneous_poisson': 0.25, 'poisson_ratio': 0.25, 'universal_anisotropy': 0.07, 'elastic_tensor_original': [[292.4852094805662, 74.26718872583555, 106.36531997846572, 0.0, 0.0, 0.0], [75.66662368188567, 292.7298766116736, 107.85644995418933, 0.0, 0.0, 0.0], [105.35401431930185, 105.35396228524964, 262.6262220425404, 0.0, 0.0, 0.0], [6.277328696423025e-05, 1.794665340958163e-05, 5.176329509780522e-05, 97.44950088692778, 0.0, 0.0], [-4.194663196146261e-05, 0.00012360057631214037, -0.00014220652690315557, 0.0, 97.93823953026916, 0.0], [-0.050513055059426555, -0.02784753307067957, -0.020255225941755124, 0.0, 0.0, 103.98562952311454]], 'compliance_tensor': [[4.1, -0.6, -1.4, -0.0, -0.0, 0.0], [-0.6, 4.1, -1.4, -0.0, 0.0, 0.0], [-1.4, -1.4, 5.0, 0.0, 0.0, -0.0], [-0.0, 0.0, 0.0, 10.2, 0.0, -0.0], [-0.0, 0.0, 0.0, 0.0, 10.2, 0.0], [0.0, 0.0, -0.0, -0.0, 0.0, 9.4]], 'warnings': [], 'nsites': 8}",0,97,158,0.07,0.25,242.5
168,mp-19893,PbCO3,"{'Pb': 1.0, 'C': 1.0, 'O': 3.0}",0.440652311,6.271760759,"{'G_Reuss': 20.0, 'G_VRH': 21.0, 'G_Voigt': 22.0, 'G_Voigt_Reuss_Hill': 21.0, 'K_Reuss': 53.0, 'K_VRH': 56.0, 'K_Voigt': 59.0, 'K_Voigt_Reuss_Hill': 56.0, 'elastic_anisotropy': 0.47, 'elastic_tensor': [[62.0, 39.0, 32.0, 0.0, 0.0, 0.0], [39.0, 96.0, 58.0, 0.0, 0.0, 0.0], [32.0, 58.0, 115.0, 0.0, 0.0, 0.0], [0.0, 0.0, 0.0, 20.0, 0.0, 0.0], [0.0, 0.0, 0.0, 0.0, 15.0, 0.0], [0.0, 0.0, 0.0, 0.0, 0.0, 25.0]], 'homogeneous_poisson': 0.33, 'poisson_ratio': 0.33, 'universal_anisotropy': 0.47, 'elastic_tensor_original': [[115.05600146998279, 33.52857560843193, 57.133300379336106, 0.0, 0.0, 0.0], [31.297140308366316, 62.40791263225774, 38.57883699118061, 0.0, 0.0, 0.0], [59.087958575783084, 38.98609704131039, 95.81145409677795, 0.0, 0.0, 0.0], [5.923007388938053e-05, 6.580008208448942e-06, 4.190671894526097e-05, 24.954268230392646, 0.0, 0.0], [0.036143927014816765, -0.002855696867145608, 0.023307891096645026, 0.0, 20.3099053855981, 0.0], [-0.0002926030375255392, 2.0933312171163252e-05, -8.455324785419771e-05, 0.0, 0.0, 15.497641642643167]], 'compliance_tensor': [[21.9, -7.4, -2.4, 0.0, 0.0, 0.0], [-7.4, 17.5, -6.8, 0.0, -0.0, 0.0], [-2.4, -6.8, 12.8, 0.0, 0.0, 0.0], [0.0, 0.0, 0.0, 49.2, 0.0, 0.0], [0.0, -0.0, 0.0, 0.0, 64.5, 0.0], [0.0, 0.0, 0.0, 0.0, 0.0, 40.1]], 'warnings': [], 'nsites': 20}",0,21,56,0.47,0.33,55.86