,mp_id,Formula,Composition,IPF,Density,Elastic_Tensor,E_above_Hull,G_VRH,K_VRH,Elastic_Anisotropy,poisson_ratio,Y_Modulus
143,mp-4385,CdCO3,"{'Cd': 1.0, 'C': 1.0, 'O': 3.0}",0.508335701,4.744605815,"{'G_Reuss': 30.0, 'G_VRH': 32.0, 'G_Voigt': 34.0, 'G_Voigt_Reuss_Hill': 32.0, 'K_Reuss': 86.0, 'K_VRH': 91.0, 'K_Voigt': 96.0, 'K_Voigt_Reuss_Hill': 91.0, 'elastic_anisotropy': 0.75, 'elastic_tensor': [[167.0, 85.0, 67.0, 10.0, 0.0, 0.0], [85.0, 167.0, 67.0, -10.0, 0.0, 0.0], [67.0, 67.0, 94.0, 0.0, 0.0, 0.0], [10.0, -10.0, 0.0, 31.0, 0.0, 0.0], [0.0, 0.0, 0.0, 0.0, 31.0, 10.0], [0.0, 0.0, 0.0, 0.0, 10.0, 41.0]], 'homogeneous_poisson': 0.34, 'poisson_ratio': 0.34, 'universal_anisotropy': 0.75, 'elastic_tensor_original': [[166.51671392320713, 84.01010200630861, 66.91693029026932, -9.886078326345004, 0.0, 0.0], [84.8825030771344, 167.1779092872274, 67.28888732313298, 9.992699443505073, 0.0, 0.0], [67.83332544476761, 67.83331496526907, 93.74305837378269, 0.0, 0.0, 0.0], [-10.265361902823205, 9.856643254776571, -0.1897609560538713, 30.50248844014646, 0.0, 0.0], [0.001537872705693628, 0.0016484359939035924, 0.00032378986785428865, -0.00039833317076465096, 30.586935986789705, -10.038044889916819], [-8.74869892113325e-05, 0.0013489858589378733, 0.0009095238304075193, 0.001560856578812184, -10.254909903078563, 41.06973830568777]], 'compliance_tensor': [[9.854475737444876, -3.3684763771694173, -4.668059487155918, -4.360795738049685, 1.5831302261021512e-15, 9.760241664534907e-07], [-3.3684763771694173, 9.854476864460668, -4.668059754089277, 4.360795987412756, -4.319095333413112e-07, 9.760242168593022e-07], [-4.668059487155919, -4.668059754089278, 17.386784581533156, 2.5548452461230453e-16, -2.871096254967911e-15, -4.6234207878930836e-07], [-4.360795738049684, 4.360795987412756, 2.554844937158305e-16, 35.615184422814465, 1.7637304844345414e-06, -8.638190716657272e-07], [2.4289535828866636e-15, -4.319095334300076e-07, -3.4160104663048043e-15, 1.7637304841921318e-06, 35.61518238623369, -8.72159147609937], [9.760241645500226e-07, 9.76024217438626e-07, -4.623420778363041e-07, -8.638190710464053e-07, -8.72159147609937, 26.445905356244438]], 'warnings': [], 'nsites': 10}",0,32,91,0.75,0.34,85.76
144,mp-5383,NdNiC2,"{'Nd': 1.0, 'Ni': 1.0, 'C': 2.0}",0.199520705,7.069543236,"{'G_Reuss': 84.0, 'G_VRH': 86.0, 'G_Voigt': 88.0, 'G_Voigt_Reuss_Hill': 86.0, 'K_Reuss': 165.0, 'K_VRH': 172.0, 'K_Voigt': 180.0, 'K_Voigt_Reuss_Hill': 172.0, 'elastic_anisotropy': 0.34, 'elastic_tensor': [[368.0, 161.0, 104.0, 0.0, 0.0, 0.0], [161.0, 297.0, 108.0, 0.0, 0.0, 0.0], [104.0, 108.0, 209.0, 0.0, 0.0, 0.0], [0.0, 0.0, 0.0, 86.0, 0.0, 0.0], [0.0, 0.0, 0.0, 0.0, 74.0, 0.0], [0.0, 0.0, 0.0, 0.0, 0.0, 115.0]], 'homogeneous_poisson': 0.29, 'poisson_ratio': 0.29, 'universal_anisotropy': 0.34, 'elastic_tensor_original': [[367.9673996376524, 169.45892194844362, 104.42043721296808, 0.0, 0.0, 0.0], [152.52397856138893, 297.0200988805674, 102.55922708437859, 0.0, 0.0, 0.0], [104.21528935377945, 112.74719426993929, 209.03468901949273, 0.0, 0.0, 0.0], [0.0, 0.0, 0.0, 86.02777093667424, 0.0, 0.0], [0.0, 0.0, 0.0, 0.0, 73.66128914250974, 0.0], [0.0, 0.0, 0.0, 0.0, 0.0, 115.00126079080226]], 'compliance_tensor': [[3.7, -1.7, -1.0, 0.0, 0.0, 0.0], [-1.7, 4.9, -1.7, 0.0, 0.0, 0.0], [-1.0, -1.7, 6.2, 0.0, 0.0, -0.0], [0.0, 0.0, 0.0, 11.6, 0.0, 0.0], [0.0, 0.0, 0.0, 0.0, 13.6, 0.0], [0.0, 0.0, -0.0, 0.0, 0.0, 8.7]], 'warnings': ['Contains a rare earth element'], 'nsites': 4}",0,86,172,0.34,0.29,221.88
145,mp-5443,Nb2SnC,"{'Nb': 2.0, 'Sn': 1.0, 'C': 1.0}",0.110208031,8.127472796,"{'G_Reuss': 77.0, 'G_VRH': 79.0, 'G_Voigt': 80.0, 'G_Voigt_Reuss_Hill': 79.0, 'K_Reuss': 160.0, 'K_VRH': 160.0, 'K_Voigt': 160.0, 'K_Voigt_Reuss_Hill': 160.0, 'elastic_anisotropy': 0.17, 'elastic_tensor': [[251.0, 97.0, 124.0, 0.0, 0.0, 0.0], [97.0, 251.0, 124.0, 0.0, 0.0, 0.0], [124.0, 124.0, 247.0, 0.0, 0.0, 0.0], [0.0, 0.0, 0.0, 94.0, 0.0, 0.0], [0.0, 0.0, 0.0, 0.0, 94.0, 0.0], [0.0, 0.0, 0.0, 0.0, 0.0, 77.0]], 'homogeneous_poisson': 0.29, 'poisson_ratio': 0.29, 'universal_anisotropy': 0.17, 'elastic_tensor_original': [[250.20410851901326, 97.53437097597258, 124.47592757679064, 0.0, 0.0, -1.7684227764909715e-05], [98.98154537821223, 250.57126943265666, 122.72400634521058, 0.0, 0.0, -4.413593584732972e-05], [125.23152971787167, 125.23163428844084, 247.3117553583823, 0.0, 0.0, -2.2078035119194785e-05], [-0.008828952517638856, -0.006386685586039391, -0.00825268016557969, 93.55585154816696, -1.6476651481878697e-05, 0.0], [7.740320162437723e-05, 1.0676788067827508e-05, 9.084654414392609e-05, -8.799995660999138e-07, 93.86830292665894, 0.0], [-0.159742010526732, -0.2250832272880758, -0.21449170569676737, 0.0, 0.0, 77.89319260315767]], 'compliance_tensor': [[5.5, -1.0, -2.3, 0.0, 0.0, 0.0], [-1.0, 5.5, -2.3, -0.0, -0.0, 0.0], [-2.3, -2.3, 6.3, -0.0, -0.0, -0.0], [0.0, -0.0, -0.0, 10.7, 0.0, 0.0], [0.0, 0.0, -0.0, 0.0, 10.7, 0.0], [0.0, 0.0, -0.0, 0.0, 0.0, 13.0]], 'warnings': [], 'nsites': 8}",0,79,160,0.17,0.29,203.82
146,mp-568066,Pr2CBr,"{'Pr': 2.0, 'C': 1.0, 'Br': 1.0}",0.134248661,6.423642643,"{'G_Reuss': 37.0, 'G_VRH': 37.0, 'G_Voigt': 37.0, 'G_Voigt_Reuss_Hill': 37.0, 'K_Reuss': 62.0, 'K_VRH': 62.0, 'K_Voigt': 62.0, 'K_Voigt_Reuss_Hill': 62.0, 'elastic_anisotropy': 0.02, 'elastic_tensor': [[116.0, 37.0, 37.0, 0.0, 0.0, 0.0], [37.0, 116.0, 37.0, 0.0, 0.0, 0.0], [37.0, 37.0, 104.0, 0.0, 0.0, 0.0], [0.0, 0.0, 0.0, 36.0, 0.0, 0.0], [0.0, 0.0, 0.0, 0.0, 36.0, 0.0], [0.0, 0.0, 0.0, 0.0, 0.0, 39.0]], 'homogeneous_poisson': 0.25, 'poisson_ratio': 0.25, 'universal_anisotropy': 0.02, 'elastic_tensor_original': [[116.49415257559792, 36.724923597919414, 38.168870998551206, 0.0, 0.0, 1.0999760804625199e-05], [37.04386899061642, 116.82089180844802, 38.22916650669322, 0.0, 0.0, 1.740006923161645e-05], [36.66907276035302, 36.66906196032264, 103.81148205072094, 0.0, 0.0, 5.600015754409879e-06], [0.0, 0.0, 0.0, 36.16327708699707, 5.3999941009598494e-06, 0.0], [0.0, 0.0, 0.0, 0.0, 36.0452383374233, 0.0], [1.1651249551828232e-05, 0.0, 0.0, 0.0, 0.0, 38.819954806470214]], 'compliance_tensor': [[10.3, -2.4, -2.8, 0.0, 0.0, -0.0], [-2.4, 10.3, -2.8, 0.0, 0.0, -0.0], [-2.8, -2.8, 11.7, 0.0, 0.0, 0.0], [0.0, 0.0, 0.0, 27.7, -0.0, 0.0], [0.0, 0.0, 0.0, -0.0, 27.7, 0.0], [-0.0, -0.0, 0.0, 0.0, 0.0, 25.4]], 'warnings': ['Contains a rare earth element'], 'nsites': 8}",0,37,62,0.02,0.25,92.5
147,mp-568556,Mg2B24C,"{'Mg': 2.0, 'B': 24.0, 'C': 1.0}",0.060475733,2.59843182,"{'G_Reuss': 196.0, 'G_VRH': 197.0, 'G_Voigt': 198.0, 'G_Voigt_Reuss_Hill': 197.0, 'K_Reuss': 209.0, 'K_VRH': 209.0, 'K_Voigt': 209.0, 'K_Voigt_Reuss_Hill': 209.0, 'elastic_anisotropy': 0.03, 'elastic_tensor': [[486.0, 59.0, 59.0, 0.0, 0.0, 0.0], [59.0, 500.0, 78.0, 0.0, 0.0, 0.0], [59.0, 78.0, 500.0, 0.0, 0.0, 0.0], [0.0, 0.0, 0.0, 180.0, 0.0, 0.0], [0.0, 0.0, 0.0, 0.0, 189.0, 0.0], [0.0, 0.0, 0.0, 0.0, 0.0, 189.0]], 'homogeneous_poisson': 0.14, 'poisson_ratio': 0.14, 'universal_anisotropy': 0.03, 'elastic_tensor_original': [[499.8816889770192, 77.97870725721405, 59.00267769587873, 0.0, 0.0, 0.0], [77.87758295645762, 500.1408681094168, 58.970451679974516, 0.0, 0.0, 0.0], [59.40305773770672, 59.40305773770672, 485.5384908111436, 0.0, 0.0, 0.0], [2.1076663108826274e-05, -2.262666284452879e-05, 9.673331700534051e-06, 189.09507126165096, 0.0, 0.0], [-3.0903328115725134e-05, 2.6036662270798158e-05, -6.943332161025333e-06, 0.0, 189.0953220449419, 0.0], [7.846665307211504e-06, -4.8233324982153556e-06, 8.503331862256149e-06, 0.0, 0.0, 179.86420413402695]], 'compliance_tensor': [[2.1, -0.2, -0.2, -0.0, 0.0, 0.0], [-0.2, 2.1, -0.3, 0.0, 0.0, -0.0], [-0.2, -0.3, 2.1, -0.0, 0.0, -0.0], [-0.0, 0.0, -0.0, 5.6, 0.0, -0.0], [0.0, 0.0, 0.0, 0.0, 5.3, 0.0], [0.0, -0.0, -0.0, -0.0, 0.0, 5.3]], 'warnings': [], 'nsites': 54}",0,197,209,0.03,0.14,449.16
148,mp-568803,Mg(B6C)2,"{'Mg': 1.0, 'B': 12.0, 'C': 2.0}",0.058069451,2.701806056,"{'G_Reuss': 210.0, 'G_VRH': 214.0, 'G_Voigt': 218.0, 'G_Voigt_Reuss_Hill': 214.0, 'K_Reuss': 228.0, 'K_VRH': 229.0, 'K_Voigt': 229.0, 'K_Voigt_Reuss_Hill': 229.0, 'elastic_anisotropy': 0.19, 'elastic_tensor': [[555.0, 64.0, 116.0, 0.0, 0.0, 0.0], [64.0, 546.0, 38.0, 0.0, 0.0, 0.0], [116.0, 38.0, 525.0, 0.0, 0.0, 0.0], [0.0, 0.0, 0.0, 177.0, 0.0, 0.0], [0.0, 0.0, 0.0, 0.0, 272.0, 0.0], [0.0, 0.0, 0.0, 0.0, 0.0, 171.0]], 'homogeneous_poisson': 0.14, 'poisson_ratio': 0.14, 'universal_anisotropy': 0.19, 'elastic_tensor_original': [[525.04722803307, 115.96260154936842, 37.64499445987342, 0.0, 0.0, 0.0], [116.61969077171474, 554.9601687565685, 64.41168476956624, 0.0, 0.0, 0.0], [37.80436292452808, 63.13655641212321, 545.5493307185648, 0.0, 0.0, 0.0], [-3.163999340654501e-05, 2.2043328740559126e-05, 7.339665137174032e-05, 170.5182042366302, 0.0, 0.0], [-1.4760017722779983e-05, -2.571333694746158e-05, 6.815995778170495e-05, 0.0, 177.3294747469362, 0.0], [3.1173217912348066e-05, 0.0003752298814222728, -6.148986086474057e-05, 3.426664917928206e-06, -1.6733324793773923e-06, 272.48932304702623]], 'compliance_tensor': [[1.9, -0.2, -0.4, 0.0, 0.0, 0.0], [-0.2, 1.9, -0.1, 0.0, 0.0, 0.0], [-0.4, -0.1, 2.0, -0.0, 0.0, 0.0], [0.0, 0.0, -0.0, 5.6, 0.0, 0.0], [0.0, 0.0, 0.0, 0.0, 3.7, 0.0], [0.0, 0.0, 0.0, 0.0, 0.0, 5.9]], 'warnings': [], 'nsites': 30}",0,214,229,0.19,0.14,487.92
149,mp-570074,Sc3IrC4,"{'Sc': 3.0, 'Ir': 1.0, 'C': 4.0}",0.117474862,6.629449449,"{'G_Reuss': 121.0, 'G_VRH': 122.0, 'G_Voigt': 123.0, 'G_Voigt_Reuss_Hill': 122.0, 'K_Reuss': 186.0, 'K_VRH': 190.0, 'K_Voigt': 194.0, 'K_Voigt_Reuss_Hill': 190.0, 'elastic_anisotropy': 0.11, 'elastic_tensor': [[338.0, 106.0, 104.0, 0.0, 35.0, 0.0], [106.0, 377.0, 119.0, 0.0, 25.0, 0.0], [104.0, 119.0, 371.0, 0.0, 25.0, 0.0], [0.0, 0.0, 0.0, 126.0, 0.0, 9.0], [35.0, 25.0, 25.0, 0.0, 115.0, 0.0], [0.0, 0.0, 0.0, 9.0, 0.0, 120.0]], 'homogeneous_poisson': 0.24, 'poisson_ratio': 0.24, 'universal_anisotropy': 0.11, 'elastic_tensor_original': [[341.3958309960893, 105.81724789141896, 102.32800443120142, 0.0, 30.06667746475557, 0.0], [105.87246958425004, 377.41458567167, 119.87439948768926, 0.0, 27.16891185866059, 0.0], [102.76152221701976, 119.69058745871786, 371.39004543290224, 0.0, 27.30867086167106, 0.0], [0.0, 0.0, 0.0, 124.83590496935669, 0.0, 9.1915280056821], [33.56929632444674, 23.14907247771316, 29.5263949795176, 0.0, 113.17020217849162, 0.0], [0.00013693702493783986, 0.00030755747133046844, 0.00026410735765178224, 8.95950672194208, 0.0001622237577594183, 120.74181368644892]], 'compliance_tensor': [[3.5, -0.7, -0.7, 0.0, -0.7, 0.0], [-0.7, 3.1, -0.8, 0.0, -0.3, 0.0], [-0.7, -0.8, 3.2, 0.0, -0.3, 0.0], [0.0, 0.0, 0.0, 8.0, 0.0, -0.6], [-0.7, -0.3, -0.3, 0.0, 9.0, 0.0], [0.0, 0.0, 0.0, -0.6, 0.0, 8.4]], 'warnings': [], 'nsites': 16}",0.925750625,122,190,0.11,0.24,302.56
150,mp-570822,Tb3AlC,"{'Tb': 3.0, 'Al': 1.0, 'C': 1.0}",0.111836842,7.21089154,"{'G_Reuss': 7.0, 'G_VRH': 12.0, 'G_Voigt': 17.0, 'G_Voigt_Reuss_Hill': 12.0, 'K_Reuss': 36.0, 'K_VRH': 36.0, 'K_Voigt': 36.0, 'K_Voigt_Reuss_Hill': 36.0, 'elastic_anisotropy': 6.51, 'elastic_tensor': [[82.0, 13.0, 13.0, 0.0, 0.0, 0.0], [13.0, 82.0, 13.0, 0.0, 0.0, 0.0], [13.0, 13.0, 82.0, 0.0, 0.0, 0.0], [0.0, 0.0, 0.0, 5.0, 0.0, 0.0], [0.0, 0.0, 0.0, 0.0, 5.0, 0.0], [0.0, 0.0, 0.0, 0.0, 0.0, 5.0]], 'homogeneous_poisson': 0.35, 'poisson_ratio': 0.35, 'universal_anisotropy': 6.51, 'elastic_tensor_original': [[81.8439547365053, 12.754830187420637, 12.754830187420637, 0.0, 0.0, 0.0], [12.754830187420637, 81.8439547365053, 12.754830187420637, 0.0, 0.0, 0.0], [12.754830187420637, 12.754830187420637, 81.8439547365053, 0.0, 0.0, 0.0], [0.0, 0.0, 0.0, 4.740011505872979, 0.0, 0.0], [0.0, 0.0, 0.0, 0.0, 4.740011505872979, 0.0], [0.0, 0.0, 0.0, 0.0, 0.0, 4.740011505872979]], 'compliance_tensor': [[12.8, -1.7, -1.7, 0.0, 0.0, 0.0], [-1.7, 12.8, -1.7, 0.0, 0.0, 0.0], [-1.7, -1.7, 12.8, 0.0, 0.0, 0.0], [0.0, 0.0, 0.0, 211.0, 0.0, 0.0], [0.0, 0.0, 0.0, 0.0, 211.0, 0.0], [0.0, 0.0, 0.0, 0.0, 0.0, 211.0]], 'warnings': ['Contains a rare earth element'], 'nsites': 5}",0,12,36,6.51,0.35,32.4
151,mp-6916,Sm(BC)2,"{'Sm': 1.0, 'B': 2.0, 'C': 2.0}",0.159040181,6.033427524,"{'G_Reuss': 118.0, 'G_VRH': 125.0, 'G_Voigt': 132.0, 'G_Voigt_Reuss_Hill': 125.0, 'K_Reuss': 150.0, 'K_VRH': 171.0, 'K_Voigt': 191.0, 'K_Voigt_Reuss_Hill': 171.0, 'elastic_anisotropy': 0.84, 'elastic_tensor': [[205.0, 52.0, 52.0, 0.0, 0.0, 0.0], [52.0, 478.0, 177.0, 0.0, 0.0, 0.0], [52.0, 177.0, 478.0, 0.0, 0.0, 0.0], [0.0, 0.0, 0.0, 175.0, 0.0, 0.0], [0.0, 0.0, 0.0, 0.0, 95.0, 0.0], [0.0, 0.0, 0.0, 0.0, 0.0, 95.0]], 'homogeneous_poisson': 0.21, 'poisson_ratio': 0.21, 'universal_anisotropy': 0.84, 'elastic_tensor_original': [[205.4912048908273, 52.89130237554176, 52.89130237554176, 0.0, 0.0, 0.0], [50.12257458403286, 477.94334015817805, 177.4697612422203, 0.0, 0.0, 0.0], [50.12257458403286, 177.4697612422203, 477.94334015817805, 0.0, 0.0, 0.0], [0.0, 1.754954135850009, -1.7549541358500098, 175.4864071973903, 0.0, 0.0], [0.0, 0.0, 0.0, 0.0, 95.12239352064469, 0.0], [0.0, 0.0, 0.0, 0.0, 0.0, 95.12239352064469]], 'compliance_tensor': [[5.0659676359312, -0.3981191141998482, -0.3981191141998482, 1.8890395024906667e-19, 0.0, 0.0], [-0.39811911419984813, 2.4582044395824996, -0.8698751992588865, 1.4955732464623987e-19, 0.0, 0.0], [-0.39811911419984825, -0.8698751992588865, 2.4582044395824996, -9.032053086076794e-19, 0.0, 0.0], [1.8890395024906672e-19, 1.495573246462399e-19, -9.032053086076795e-19, 5.698447053367398, 0.0, 0.0], [0.0, 0.0, 0.0, 0.0, 10.512771630194178, 0.0], [0.0, 0.0, 0.0, 0.0, 0.0, 10.512771630194178]], 'warnings': ['Structure contains a rare earth element'], 'nsites': 10}",0,125,171,0.84,0.21,302.5
152,mp-7130,ScRu3C,"{'Sc': 1.0, 'Ru': 3.0, 'C': 1.0}",0.097320875,8.758367764,"{'G_Reuss': 137.0, 'G_VRH': 140.0, 'G_Voigt': 143.0, 'G_Voigt_Reuss_Hill': 140.0, 'K_Reuss': 234.0, 'K_VRH': 234.0, 'K_Voigt': 234.0, 'K_Voigt_Reuss_Hill': 234.0, 'elastic_anisotropy': 0.19, 'elastic_tensor': [[471.0, 115.0, 115.0, 0.0, 0.0, 0.0], [115.0, 471.0, 115.0, 0.0, 0.0, 0.0], [115.0, 115.0, 471.0, 0.0, 0.0, 0.0], [0.0, 0.0, 0.0, 119.0, 0.0, 0.0], [0.0, 0.0, 0.0, 0.0, 119.0, 0.0], [0.0, 0.0, 0.0, 0.0, 0.0, 119.0]], 'homogeneous_poisson': 0.25, 'poisson_ratio': 0.25, 'universal_anisotropy': 0.19, 'elastic_tensor_original': [[470.6377516638386, 115.22410357901411, 115.22410357901411, 0.0, 0.0, 0.0], [115.22537658400353, 470.6358136470416, 115.22537658400353, 0.0, 0.0, 0.0], [115.2283216892298, 115.2283216892298, 470.64088181325025, 0.0, 0.0, 0.0], [-0.00020521029831565565, -0.00014967355091251687, 1.6456690590949358e-05, 119.33529753853384, 0.0, 0.0], [-5.8250084676838816e-05, 0.00018863694088936195, 0.00019435694920593441, 0.0, 119.33538195198986, 0.0], [0.0001655002405919558, 0.000225783661557978, 0.0003766705475684916, 0.0, 0.0, 119.33570703246245]], 'compliance_tensor': [[2.4, -0.5, -0.5, -0.0, 0.0, 0.0], [-0.5, 2.4, -0.5, 0.0, -0.0, 0.0], [-0.5, -0.5, 2.4, 0.0, 0.0, -0.0], [-0.0, 0.0, 0.0, 8.4, -0.0, 0.0], [0.0, -0.0, 0.0, -0.0, 8.4, -0.0], [0.0, 0.0, -0.0, 0.0, -0.0, 8.4]], 'warnings': [], 'nsites': 5}",0,140,234,0.19,0.25,350
153,mp-864790,Nd2BC,"{'Nd': 2.0, 'B': 1.0, 'C': 1.0}",0.203908216,5.912750836,"{'G_Reuss': 21.0, 'G_VRH': 26.0, 'G_Voigt': 31.0, 'G_Voigt_Reuss_Hill': 26.0, 'K_Reuss': 41.0, 'K_VRH': 44.0, 'K_Voigt': 48.0, 'K_Voigt_Reuss_Hill': 44.0, 'elastic_anisotropy': 2.37, 'elastic_tensor': [[85.0, 19.0, 43.0, 0.0, 30.0, 0.0], [19.0, 94.0, 19.0, 0.0, -3.0, 0.0], [43.0, 19.0, 92.0, 0.0, 28.0, 0.0], [0.0, 0.0, 0.0, 22.0, 0.0, 12.0], [30.0, -3.0, 28.0, 0.0, 47.0, 0.0], [0.0, 0.0, 0.0, 12.0, 0.0, 22.0]], 'homogeneous_poisson': 0.25, 'poisson_ratio': 0.25, 'universal_anisotropy': 2.37, 'elastic_tensor_original': [[84.63216682382283, 18.473501936471685, 40.687838396663516, 0.0, 28.582938422314424, 0.0], [19.324163323800605, 93.6108579037267, 19.514318626677134, 0.0, -2.6224667923414877, 0.0], [46.01666621892556, 18.797032669887475, 92.4599792708576, 0.0, 25.722386463082422, 0.0], [0.0, 0.0, 0.0, 22.382159022805105, 0.0, 12.269858243991852], [30.27160619276903, -3.0643041382218463, 29.90533416564138, 0.0, 47.218691821308205, 0.0], [0.0, 0.0, 0.0, 11.441679110129154, 0.0, 21.632786062758413]], 'compliance_tensor': [[18.0, -2.8, -5.4, -0.0, -8.3, 0.0], [-2.8, 11.8, -2.3, -0.0, 3.8, 0.0], [-5.4, -2.3, 15.7, -0.0, -5.9, -0.0], [-0.0, -0.0, -0.0, 63.1, 0.0, -34.5], [-8.3, 3.8, -5.9, 0.0, 30.1, -0.0], [0.0, 0.0, -0.0, -34.5, -0.0, 65.0]], 'warnings': ['Contains a rare earth element'], 'nsites': 8}",0,26,44,2.37,0.25,65
154,mp-9956,AlCr2C,"{'Al': 1.0, 'Cr': 2.0, 'C': 1.0}",0.187955816,5.338343679,"{'G_Reuss': 133.0, 'G_VRH': 134.0, 'G_Voigt': 134.0, 'G_Voigt_Reuss_Hill': 134.0, 'K_Reuss': 189.0, 'K_VRH': 189.0, 'K_Voigt': 189.0, 'K_Voigt_Reuss_Hill': 189.0, 'elastic_anisotropy': 0.02, 'elastic_tensor': [[365.0, 81.0, 113.0, 0.0, 0.0, 0.0], [81.0, 365.0, 113.0, 0.0, 0.0, 0.0], [113.0, 113.0, 359.0, 0.0, 0.0, 0.0], [0.0, 0.0, 0.0, 134.0, 0.0, 0.0], [0.0, 0.0, 0.0, 0.0, 134.0, 0.0], [0.0, 0.0, 0.0, 0.0, 0.0, 142.0]], 'homogeneous_poisson': 0.21, 'poisson_ratio': 0.21, 'universal_anisotropy': 0.02, 'elastic_tensor_original': [[366.2890842788698, 82.31549835780449, 112.12280341166641, 0.0, 0.0, 3.506433656009336e-06], [78.71591306826683, 364.8324798574796, 108.30951446595262, 0.0, 0.0, 7.409271515162188e-05], [115.21127961409623, 115.21133248481702, 358.9675201257846, 0.0, 0.0, 2.3437936973346722e-05], [-0.2781548377902475, -0.2448711169155755, -0.3058534741569828, 133.8094187168943, 2.7163274198885166e-05, -5.3333217226918556e-08], [-0.000550072460984137, -0.0012153607765290845, -0.0008295301132422447, 1.0599980299274818e-06, 134.19573714929902, 0.0], [0.0627643123180823, -0.028550598263915036, 0.1172978192563635, 0.0, 0.0, 140.7222973603835]], 'compliance_tensor': [[3.1, -0.4, -0.8, -0.0, 0.0, 0.0], [-0.4, 3.1, -0.8, 0.0, -0.0, 0.0], [-0.8, -0.8, 3.3, 0.0, 0.0, -0.0], [-0.0, 0.0, 0.0, 7.5, 0.0, 0.0], [0.0, 0.0, 0.0, 0.0, 7.5, 0.0], [0.0, 0.0, -0.0, 0.0, 0.0, 7.1]], 'warnings': [], 'nsites': 8}",0,134,189,0.02,0.21,324.28
155,mp-9987,Nb2PC,"{'Nb': 2.0, 'P': 1.0, 'C': 1.0}",0.098217008,6.873148549,"{'G_Reuss': 136.0, 'G_VRH': 140.0, 'G_Voigt': 144.0, 'G_Voigt_Reuss_Hill': 140.0, 'K_Reuss': 223.0, 'K_VRH': 224.0, 'K_Voigt': 225.0, 'K_Voigt_Reuss_Hill': 224.0, 'elastic_anisotropy': 0.3, 'elastic_tensor': [[368.0, 117.0, 165.0, 0.0, 0.0, 0.0], [117.0, 368.0, 165.0, 0.0, 0.0, 0.0], [165.0, 165.0, 392.0, 0.0, 0.0, 0.0], [0.0, 0.0, 0.0, 184.0, 0.0, 0.0], [0.0, 0.0, 0.0, 0.0, 184.0, 0.0], [0.0, 0.0, 0.0, 0.0, 0.0, 125.0]], 'homogeneous_poisson': 0.24, 'poisson_ratio': 0.24, 'universal_anisotropy': 0.3, 'elastic_tensor_original': [[369.409837005792, 116.16383664987283, 165.92032856332216, 0.0, 0.0, 0.0], [115.24631155319119, 368.78999687801763, 165.95980724114216, 0.0, 0.0, 0.0], [163.34877639280026, 163.34884735010962, 392.3579557209944, 0.0, 0.0, 0.0], [-3.078914364302236e-05, 0.0003605151084754939, 0.00015821672820316758, 184.474085971209, 0.0, 0.0], [-0.00018716708778150677, -3.9600089097471914e-05, -0.00017196372024377575, 0.0, 184.46654843879205, 0.0], [-7.022348802257837e-05, -8.876019555680557e-05, 1.413336447052351e-05, 0.0, 0.0, 124.14832098150913]], 'compliance_tensor': [[3.4, -0.6, -1.2, -0.0, -0.0, 0.0], [-0.6, 3.4, -1.2, -0.0, 0.0, 0.0], [-1.2, -1.2, 3.6, 0.0, 0.0, -0.0], [-0.0, 0.0, 0.0, 5.4, 0.0, 0.0], [-0.0, 0.0, 0.0, 0.0, 5.4, -0.0], [0.0, 0.0, -0.0, 0.0, 0.0, 8.0]], 'warnings': [], 'nsites': 8}",0,140,224,0.3,0.24,347.2