,mp_id,Formula,Composition,IPF,Density,Elastic_Tensor,E_above_Hull,G_VRH,K_VRH,Elastic_Anisotropy,poisson_ratio,Y_Modulus
90,mp-1024999,HoCr2Si2C,"{'Ho': 1.0, 'Cr': 2.0, 'Si': 2.0, 'C': 1.0}",0.160212245,6.837675236,"{'G_Reuss': 110.0, 'G_VRH': 111.0, 'G_Voigt': 113.0, 'G_Voigt_Reuss_Hill': 111.0, 'K_Reuss': 159.0, 'K_VRH': 160.0, 'K_Voigt': 161.0, 'K_Voigt_Reuss_Hill': 160.0, 'elastic_anisotropy': 0.16, 'elastic_tensor': [[366.0, 70.0, 76.0, 0.0, 0.0, 0.0], [70.0, 366.0, 76.0, 0.0, 0.0, 0.0], [76.0, 76.0, 272.0, 0.0, 0.0, 0.0], [0.0, 0.0, 0.0, 96.0, 0.0, 0.0], [0.0, 0.0, 0.0, 0.0, 96.0, 0.0], [0.0, 0.0, 0.0, 0.0, 0.0, 112.0]], 'homogeneous_poisson': 0.22, 'poisson_ratio': 0.22, 'universal_anisotropy': 0.16, 'elastic_tensor_original': [[365.7822195463499, 70.81794442200612, 80.76445408720183, 0.0, 0.0, 0.0], [69.22200420666894, 366.60800616559385, 80.29425187693651, 0.0, 0.0, 0.0], [70.41065174400504, 74.2599959695099, 272.208113876614, 0.0, 0.0, 0.0], [-0.15631379536354073, 0.19782388383579233, 0.1311549887825254, 96.02553022311918, 0.0, 0.0], [-0.19778688850106343, 0.15635369232886587, -0.1311181304728175, 0.0, 95.91357961160588, 0.0], [0.7190352428205605, -0.7190724686117398, 0.0, 0.0, 0.0, 112.17743619019494]], 'compliance_tensor': [[3.0, -0.4, -0.7, 0.0, -0.0, -0.0], [-0.4, 3.0, -0.7, 0.0, 0.0, -0.0], [-0.7, -0.7, 4.1, 0.0, 0.0, 0.0], [0.0, 0.0, 0.0, 10.4, 0.0, 0.0], [-0.0, 0.0, 0.0, 0.0, 10.4, 0.0], [-0.0, -0.0, 0.0, 0.0, -0.0, 8.9]], 'warnings': ['Contains a rare earth element'], 'nsites': 6}",0,111,160,0.16,0.22,270.84
91,mp-31624,Sr2TaCrO6,"{'Sr': 2.0, 'Ta': 1.0, 'Cr': 1.0, 'O': 6.0}",0.58996829,6.556700116,"{'G_Reuss': 107.0, 'G_VRH': 107.0, 'G_Voigt': 107.0, 'G_Voigt_Reuss_Hill': 107.0, 'K_Reuss': 187.0, 'K_VRH': 187.0, 'K_Voigt': 187.0, 'K_Voigt_Reuss_Hill': 187.0, 'elastic_anisotropy': 0.02, 'elastic_tensor': [[342.0, 110.0, 110.0, 0.0, 0.0, 0.0], [110.0, 342.0, 110.0, 0.0, 0.0, 0.0], [110.0, 110.0, 342.0, 0.0, 0.0, 0.0], [0.0, 0.0, 0.0, 101.0, 0.0, 0.0], [0.0, 0.0, 0.0, 0.0, 101.0, 0.0], [0.0, 0.0, 0.0, 0.0, 0.0, 101.0]], 'homogeneous_poisson': 0.26, 'poisson_ratio': 0.26, 'universal_anisotropy': 0.02, 'elastic_tensor_original': [[342.4697626487991, 109.53273114583185, 109.53273114583185, 0.0, 0.0, 0.0], [109.53273114583185, 342.4697626487991, 109.53273114583185, 0.0, 0.0, 0.0], [109.53273114583185, 109.53273114583185, 342.4697626487991, 0.0, 0.0, 0.0], [0.0, 0.0, 0.0, 101.24213058069752, 0.0, 0.0], [0.0, 0.0, 0.0, 0.0, 101.24213058069752, 0.0], [0.0, 0.0, 0.0, 0.0, 0.0, 101.24213058069752]], 'compliance_tensor': [[3.455614515992076, -0.8373911669075175, -0.8373911669075175, 1.501645898953846e-16, -6.77735246408142e-16, 5.805957136272112e-17], [-0.8373911669075176, 3.4556145159920755, -0.8373911669075177, -6.777352464081421e-16, 1.5016458989538466e-16, -5.805957136272099e-17], [-0.8373911669075175, -0.8373911669075177, 3.4556145159920755, -6.773968001845926e-16, -6.773968001845928e-16, 5.473767648680391e-32], [1.5016458989538464e-16, -6.777352464081421e-16, -6.773968001845926e-16, 9.877310900751205, 1.1798540475560376e-31, -8.856209614426996e-16], [-6.777352464081421e-16, 1.5016458989538461e-16, -6.773968001845927e-16, 1.180612183461946e-31, 9.877310900751205, -8.856209614426992e-16], [5.805957136272112e-17, -5.8059571362721e-17, 9.123464403989881e-32, -8.856209614426996e-16, -8.856209614426992e-16, 9.877310900751205]], 'warnings': [], 'nsites': 40}",0,107,187,0.02,0.26,269.64
92,mp-556264,KRb2CrF6,"{'K': 1.0, 'Rb': 2.0, 'Cr': 1.0, 'F': 6.0}",0.358012936,3.422392517,"{'G_Reuss': 25.0, 'G_VRH': 27.0, 'G_Voigt': 28.0, 'G_Voigt_Reuss_Hill': 27.0, 'K_Reuss': 36.0, 'K_VRH': 36.0, 'K_Voigt': 36.0, 'K_Voigt_Reuss_Hill': 36.0, 'elastic_anisotropy': 0.48, 'elastic_tensor': [[87.0, 11.0, 11.0, 0.0, 0.0, 0.0], [11.0, 87.0, 11.0, 0.0, 0.0, 0.0], [11.0, 11.0, 87.0, 0.0, 0.0, 0.0], [0.0, 0.0, 0.0, 21.0, 0.0, 0.0], [0.0, 0.0, 0.0, 0.0, 21.0, 0.0], [0.0, 0.0, 0.0, 0.0, 0.0, 21.0]], 'homogeneous_poisson': 0.21, 'poisson_ratio': 0.21, 'universal_anisotropy': 0.48, 'elastic_tensor_original': [[87.41841352097829, 10.619371974849042, 10.619371974849042, 0.0, 0.0, 0.0], [10.619371974849042, 87.41841352097829, 10.619371974849042, 0.0, 0.0, 0.0], [10.619371974849042, 10.619371974849042, 87.41841352097829, 0.0, 0.0, 0.0], [0.0, 0.0, 0.0, 20.611178529717293, 0.0, 0.0], [0.0, 0.0, 0.0, 0.0, 20.611178529717293, 0.0], [0.0, 0.0, 0.0, 0.0, 0.0, 20.611178529717293]], 'compliance_tensor': [[11.748417004423805, -1.2725788292201696, -1.2725788292201696, 6.769828415642574e-17, -6.479856868867393e-16, 2.2996763221356455e-17], [-1.2725788292201698, 11.748417004423805, -1.2725788292201698, -6.479856868867393e-16, 6.769828415642573e-17, -2.2996763221356396e-17], [-1.2725788292201696, -1.2725788292201698, 11.748417004423803, -1.1998113051648096e-15, -1.1998113051648096e-15, 1.458986864930188e-32], [6.769828415642581e-17, -6.479856868867394e-16, -1.1998113051648098e-15, 48.51736151614011, 3.7508678247577137e-32, -1.2905063525425922e-15], [-6.479856868867392e-16, 6.769828415642574e-17, -1.1998113051648098e-15, 9.102905687468762e-32, 48.51736151614011, -1.2905063525425922e-15], [2.2996763221356446e-17, -2.2996763221356387e-17, 2.211120175898332e-32, -1.2905063525425922e-15, -1.2905063525425922e-15, 48.51736151614011]], 'warnings': [], 'nsites': 10}",0.3432948,27,36,0.48,0.21,65.34
93,mp-560936,Rb2NaCrF6,"{'Rb': 2.0, 'Na': 1.0, 'Cr': 1.0, 'F': 6.0}",0.360392249,3.769107662,"{'G_Reuss': 26.0, 'G_VRH': 27.0, 'G_Voigt': 27.0, 'G_Voigt_Reuss_Hill': 27.0, 'K_Reuss': 36.0, 'K_VRH': 36.0, 'K_Voigt': 36.0, 'K_Voigt_Reuss_Hill': 36.0, 'elastic_anisotropy': 0.17, 'elastic_tensor': [[64.0, 21.0, 21.0, 0.0, 0.0, 0.0], [21.0, 64.0, 21.0, 0.0, 0.0, 0.0], [21.0, 21.0, 64.0, 0.0, 0.0, 0.0], [0.0, 0.0, 0.0, 31.0, 0.0, 0.0], [0.0, 0.0, 0.0, 0.0, 31.0, 0.0], [0.0, 0.0, 0.0, 0.0, 0.0, 31.0]], 'homogeneous_poisson': 0.2, 'poisson_ratio': 0.2, 'universal_anisotropy': 0.17, 'elastic_tensor_original': [[64.34574132634516, 21.354672854886523, 21.354672854886523, 0.0, 0.0, 0.0], [21.354672854886523, 64.34574132634516, 21.354672854886523, 0.0, 0.0, 0.0], [21.354672854886523, 21.354672854886523, 64.34574132634516, 0.0, 0.0, 0.0], [0.0, 0.0, 0.0, 31.25413306540203, 0.0, 0.0], [0.0, 0.0, 0.0, 0.0, 31.25413306540203, 0.0], [0.0, 0.0, 0.0, 0.0, 0.0, 31.25413306540203]], 'compliance_tensor': [[18.620758732004568, -4.639886689355257, -4.639886689355257, -2.728811895659312e-16, 8.815558654073599e-16, 2.135688937956875e-16], [-4.639886689355257, 18.620758732004568, -4.639886689355258, 8.815558654073601e-16, -2.7288118956593125e-16, -2.1356889379568749e-16], [-4.639886689355257, -4.639886689355257, 18.620758732004568, 8.815558654073603e-16, 8.815558654073603e-16, 2.7215885550617006e-32], [-2.7288118956593125e-16, 8.815558654073603e-16, 8.815558654073601e-16, 31.995768300704775, 6.754718581984159e-32, 9.408681611776029e-16], [8.815558654073603e-16, -2.728811895659312e-16, 8.815558654073601e-16, 6.754718581984161e-32, 31.995768300704775, 9.408681611776029e-16], [2.1356889379568746e-16, -2.135688937956874e-16, 4.2610323380408426e-32, 9.408681611776029e-16, 9.408681611776029e-16, 31.995768300704775]], 'warnings': [], 'nsites': 10}",0,27,36,0.17,0.2,64.8