,mp_id,Formula,Composition,IPF,Density,Elastic_Tensor,E_above_Hull,G_VRH,K_VRH,Elastic_Anisotropy,poisson_ratio,Y_Modulus
53,mp-29646,HfAs2,"{'Hf': 1.0, 'As': 2.0}",0.087095486,9.533367619,"{'G_Reuss': 74.0, 'G_VRH': 75.0, 'G_Voigt': 76.0, 'G_Voigt_Reuss_Hill': 75.0, 'K_Reuss': 115.0, 'K_VRH': 115.0, 'K_Voigt': 115.0, 'K_Voigt_Reuss_Hill': 115.0, 'elastic_anisotropy': 0.17, 'elastic_tensor': [[204.0, 62.0, 82.0, 0.0, 0.0, 0.0], [62.0, 227.0, 61.0, 0.0, 0.0, 0.0], [82.0, 61.0, 192.0, 0.0, 0.0, 0.0], [0.0, 0.0, 0.0, 67.0, 0.0, 0.0], [0.0, 0.0, 0.0, 0.0, 99.0, 0.0], [0.0, 0.0, 0.0, 0.0, 0.0, 75.0]], 'homogeneous_poisson': 0.23, 'poisson_ratio': 0.23, 'universal_anisotropy': 0.17, 'elastic_tensor_original': [[192.32465835819113, 81.50968222464606, 61.14120912635381, 0.0, 0.0, 0.0], [82.0575957016729, 203.68566306226285, 60.4376366086939, 0.0, 0.0, 0.0], [61.66003131816815, 62.814598127439815, 227.38319080759862, 0.0, 0.0, 0.0], [-1.6533393291745715e-06, -1.5566831921428505e-06, 1.8550016286227175e-05, 75.47597950669672, 0.0, 0.0], [-3.800001118781625e-07, -7.250002152602992e-06, -1.5720004667858407e-05, 0.0, 66.56446070847939, 0.0], [1.7200005499486363e-06, -7.636669103129729e-06, -1.3773337729432497e-05, 0.0, 0.0, 98.95862036836031]], 'compliance_tensor': [[6.1, -1.0, -2.3, 0.0, -0.0, 0.0], [-1.0, 5.0, -1.1, 0.0, 0.0, 0.0], [-2.3, -1.1, 6.5, 0.0, 0.0, 0.0], [0.0, 0.0, 0.0, 15.0, 0.0, 0.0], [-0.0, 0.0, 0.0, 0.0, 10.1, 0.0], [0.0, 0.0, 0.0, 0.0, 0.0, 13.2]], 'warnings': [], 'nsites': 12}",0,75,115,0.17,0.23,184.5
54,mp-30383,Hf2Au,"{'Hf': 2.0, 'Au': 1.0}",0.166110887,14.86883816,"{'G_Reuss': 56.0, 'G_VRH': 59.0, 'G_Voigt': 62.0, 'G_Voigt_Reuss_Hill': 59.0, 'K_Reuss': 134.0, 'K_VRH': 134.0, 'K_Voigt': 134.0, 'K_Voigt_Reuss_Hill': 134.0, 'elastic_anisotropy': 0.51, 'elastic_tensor': [[209.0, 83.0, 111.0, 0.0, 0.0, 0.0], [83.0, 209.0, 111.0, 0.0, 0.0, 0.0], [111.0, 111.0, 178.0, 0.0, 0.0, 0.0], [0.0, 0.0, 0.0, 79.0, 0.0, 0.0], [0.0, 0.0, 0.0, 0.0, 79.0, 0.0], [0.0, 0.0, 0.0, 0.0, 0.0, 54.0]], 'homogeneous_poisson': 0.31, 'poisson_ratio': 0.31, 'universal_anisotropy': 0.51, 'elastic_tensor_original': [[209.36373317974997, 82.8547618204515, 111.39005202139651, 0.0, 0.0, 0.0], [82.85576276809218, 209.36455567673124, 111.39000332662704, 0.0, 0.0, 0.0], [109.97665150755903, 109.97665150755903, 177.55384732574854, 0.0, 0.0, 0.0], [0.00017006972110607485, 0.00023595294640098971, 1.9093302022682598e-05, 79.1950783271315, 0.0, 0.0], [5.870657039502512e-05, 0.0001478597575284456, 0.00019679967727434855, 0.0, 79.19525720350482, 0.0], [-4.229992298926677e-06, -9.26231647048292e-05, -6.2469886268071e-05, 0.0, 0.0, 53.57009794417821]], 'compliance_tensor': [[7.2, -0.7, -4.0, 0.0, 0.0, -0.0], [-0.7, 7.2, -4.0, 0.0, 0.0, -0.0], [-4.0, -4.0, 10.7, -0.0, -0.0, 0.0], [0.0, 0.0, -0.0, 12.6, 0.0, -0.0], [0.0, 0.0, -0.0, 0.0, 12.6, 0.0], [-0.0, -0.0, 0.0, -0.0, 0.0, 18.7]], 'warnings': [], 'nsites': 3}",0,59,134,0.51,0.31,154.58
55,mp-30572,Hf2Ga,"{'Hf': 2.0, 'Ga': 1.0}",0.117179243,11.88891965,"{'G_Reuss': 61.0, 'G_VRH': 63.0, 'G_Voigt': 65.0, 'G_Voigt_Reuss_Hill': 63.0, 'K_Reuss': 119.0, 'K_VRH': 119.0, 'K_Voigt': 119.0, 'K_Voigt_Reuss_Hill': 119.0, 'elastic_anisotropy': 0.3, 'elastic_tensor': [[208.0, 83.0, 83.0, 0.0, 0.0, 0.0], [83.0, 177.0, 89.0, 0.0, 0.0, 0.0], [83.0, 89.0, 177.0, 0.0, 0.0, 0.0], [0.0, 0.0, 0.0, 58.0, 0.0, 0.0], [0.0, 0.0, 0.0, 0.0, 82.0, 0.0], [0.0, 0.0, 0.0, 0.0, 0.0, 82.0]], 'homogeneous_poisson': 0.27, 'poisson_ratio': 0.27, 'universal_anisotropy': 0.3, 'elastic_tensor_original': [[176.75771481787189, 88.6822505099993, 83.62314943803082, 0.0, 0.0, 0.0], [88.68314685633376, 176.7565332929851, 83.62315908306417, 0.0, 0.0, 0.0], [83.29008381731052, 83.29008381731052, 208.15611746008798, 0.0, 0.0, 0.0], [0.0186372984435472, 0.01218659000814468, 0.038669150602805256, 82.2092872311988, 0.0032095275466961725, 0.03596656319510781], [0.03003625156905935, 0.0023263873045453924, 0.04694567953883695, 0.007388065359088032, 82.16914481019204, 0.01612246442066447], [5.038334779917063e-05, 2.8876674957569486e-05, 1.2633336960433674e-05, 0.0, 0.0, 58.359426828202025]], 'compliance_tensor': [[6.4, -2.0, -2.0, 0.0, -0.0, 0.0], [-2.0, 8.2, -3.2, -0.0, -0.0, -0.0], [-2.0, -3.2, 8.2, 0.0, 0.0, 0.0], [0.0, -0.0, 0.0, 17.1, 0.0, 0.0], [-0.0, -0.0, 0.0, 0.0, 12.2, -0.0], [0.0, -0.0, 0.0, 0.0, -0.0, 12.2]], 'warnings': [], 'nsites': 6}",0,63,119,0.3,0.27,160.02
56,mp-30581,Hf2Cu,"{'Hf': 2.0, 'Cu': 1.0}",0.132416958,12.40423969,"{'G_Reuss': 56.0, 'G_VRH': 58.0, 'G_Voigt': 60.0, 'G_Voigt_Reuss_Hill': 58.0, 'K_Reuss': 123.0, 'K_VRH': 123.0, 'K_Voigt': 123.0, 'K_Voigt_Reuss_Hill': 123.0, 'elastic_anisotropy': 0.31, 'elastic_tensor': [[205.0, 69.0, 98.0, 0.0, 0.0, 0.0], [69.0, 205.0, 98.0, 0.0, 0.0, 0.0], [98.0, 98.0, 173.0, 0.0, 0.0, 0.0], [0.0, 0.0, 0.0, 71.0, 0.0, 0.0], [0.0, 0.0, 0.0, 0.0, 71.0, 0.0], [0.0, 0.0, 0.0, 0.0, 0.0, 51.0]], 'homogeneous_poisson': 0.3, 'poisson_ratio': 0.3, 'universal_anisotropy': 0.31, 'elastic_tensor_original': [[204.57573624149276, 68.86440317741429, 94.03715035155365, 0.0, 0.0, 0.0], [68.8599796719065, 204.57232748766714, 94.03368786994388, 0.0, 0.0, 0.0], [101.42350758417865, 101.42350758417865, 172.50094347192473, 0.0, 0.0, 0.0], [-0.0005924731005144769, -0.0004592164862115038, -0.00033082320333278014, 70.99237946953443, 0.0, 0.0], [0.0008191096781240207, 0.0007503463718114699, 0.00047273314756843336, 0.0, 70.99176182311045, 0.0], [0.42302148470989287, 0.42927488967225885, 0.4276782667740688, 0.0, 0.0, 51.06075631058843]], 'compliance_tensor': [[6.8, -0.6, -3.5, 0.0, 0.0, 0.0], [-0.6, 6.8, -3.5, 0.0, 0.0, 0.0], [-3.5, -3.5, 9.7, -0.0, 0.0, 0.0], [0.0, 0.0, -0.0, 14.1, 0.0, 0.0], [0.0, 0.0, 0.0, 0.0, 14.1, 0.0], [0.0, 0.0, 0.0, 0.0, 0.0, 19.6]], 'warnings': [], 'nsites': 3}",0,58,123,0.31,0.3,150.8
57,mp-31469,Hf5CuSn3,"{'Hf': 5.0, 'Cu': 1.0, 'Sn': 3.0}",0.120079974,11.70255254,"{'G_Reuss': 61.0, 'G_VRH': 62.0, 'G_Voigt': 63.0, 'G_Voigt_Reuss_Hill': 62.0, 'K_Reuss': 118.0, 'K_VRH': 118.0, 'K_Voigt': 118.0, 'K_Voigt_Reuss_Hill': 118.0, 'elastic_anisotropy': 0.14, 'elastic_tensor': [[211.0, 92.0, 59.0, 0.0, 0.0, 0.0], [92.0, 211.0, 59.0, 0.0, 0.0, 0.0], [59.0, 59.0, 223.0, 0.0, 0.0, 0.0], [0.0, 0.0, 0.0, 55.0, 0.0, 0.0], [0.0, 0.0, 0.0, 0.0, 55.0, 0.0], [0.0, 0.0, 0.0, 0.0, 0.0, 59.0]], 'homogeneous_poisson': 0.28, 'poisson_ratio': 0.28, 'universal_anisotropy': 0.14, 'elastic_tensor_original': [[211.1755010897473, 91.18842363419823, 60.29276390979666, 0.0, 0.0, -1.2259838416659232e-05], [91.11703400509276, 211.5194517069735, 59.46426661956284, 0.0, 0.0, -2.8397694413101104e-05], [58.43663669756737, 58.43664181742503, 223.08606062773953, 0.0, 0.0, -7.819785833239427e-06], [-0.0018137897291559157, 0.0018221930457911358, -0.0024329951654008058, 55.124350500535286, -7.406665175275106e-06, 0.0], [-0.016220009771297336, -0.018617472085433774, -0.0015036993607547926, 0.0, 55.05984909656752, 6.6666638325680535e-09], [0.04033584658523349, 0.04000833488588026, 0.09038689162964104, 0.0, 0.0, 58.89852246655387]], 'compliance_tensor': [[6.0, -2.4, -1.0, 0.0, 0.0, 0.0], [-2.4, 6.0, -1.0, -0.0, 0.0, 0.0], [-1.0, -1.0, 5.0, -0.0, -0.0, -0.0], [0.0, 0.0, -0.0, 18.2, 0.0, 0.0], [-0.0, 0.0, -0.0, 0.0, 18.2, 0.0], [0.0, 0.0, -0.0, -0.0, -0.0, 16.8]], 'warnings': [], 'nsites': 18}",0,62,118,0.14,0.28,158.72
58,mp-32887,HfTe2,"{'Hf': 1.0, 'Te': 2.0}",0.194012382,6.750964371,"{'G_Reuss': 8.0, 'G_VRH': 12.0, 'G_Voigt': 15.0, 'G_Voigt_Reuss_Hill': 12.0, 'K_Reuss': 11.0, 'K_VRH': 15.0, 'K_Voigt': 18.0, 'K_Voigt_Reuss_Hill': 15.0, 'elastic_anisotropy': 5.62, 'elastic_tensor': [[62.0, 9.0, 2.0, -2.0, 0.0, 0.0], [9.0, 62.0, 2.0, 2.0, 0.0, 0.0], [2.0, 2.0, 14.0, 0.0, 0.0, 0.0], [-2.0, 2.0, 0.0, 5.0, 0.0, 0.0], [0.0, 0.0, 0.0, 0.0, 5.0, -2.0], [0.0, 0.0, 0.0, 0.0, -2.0, 27.0]], 'homogeneous_poisson': 0.18, 'poisson_ratio': 0.18, 'universal_anisotropy': 5.62, 'elastic_tensor_original': [[63.28956977343107, 8.333216413910781, 1.4992378974795673, 4.430222425127324, 0.0, 0.0], [8.194321739556845, 62.52822074952435, 1.5171206014970298, -4.005387028682192, 0.0, 0.0], [2.553631943599192, 2.553631604350505, 14.035142253559819, 0.0, 0.0, 0.0], [1.0904265556080155, -1.4258165604499082, -0.18482115347626904, 4.527659290062995, 0.0, 0.0], [-8.930663528798215e-05, -9.273292102931491e-05, 2.5633365655176026e-05, -2.922315880863393e-05, 4.572144715818194, 1.2935510023684798], [-0.008952051268996139, 0.006792481385120457, 0.0011083790172675906, -0.007189865686508325, 0.7656812857486612, 25.885837583892517]], 'compliance_tensor': [[16.8, -2.6, -2.1, 8.0, 0.0, -0.0], [-2.6, 16.8, -2.1, -8.0, -0.0, -0.0], [-2.1, -2.1, 71.8, -0.0, 0.0, 0.0], [8.0, -8.0, -0.0, 226.4, -0.0, -0.0], [0.0, -0.0, -0.0, -0.0, 226.4, 16.0], [-0.0, -0.0, 0.0, -0.0, 16.0, 38.7]], 'warnings': [], 'nsites': 3}",0,12,15,5.62,0.18,28.32
59,mp-352,HfO2,"{'Hf': 1.0, 'O': 2.0}",0.551274942,9.967760512,"{'G_Reuss': 95.0, 'G_VRH': 99.0, 'G_Voigt': 102.0, 'G_Voigt_Reuss_Hill': 99.0, 'K_Reuss': 200.0, 'K_VRH': 205.0, 'K_Voigt': 209.0, 'K_Voigt_Reuss_Hill': 205.0, 'elastic_anisotropy': 0.39, 'elastic_tensor': [[297.0, 154.0, 108.0, 0.0, 2.0, 0.0], [154.0, 396.0, 163.0, 0.0, 7.0, 0.0], [108.0, 163.0, 340.0, 0.0, -42.0, 0.0], [0.0, 0.0, 0.0, 129.0, 0.0, 9.0], [2.0, 7.0, -42.0, 0.0, 94.0, 0.0], [0.0, 0.0, 0.0, 9.0, 0.0, 84.0]], 'homogeneous_poisson': 0.29, 'poisson_ratio': 0.29, 'universal_anisotropy': 0.39, 'elastic_tensor_original': [[364.2565045932262, 161.75531940657908, 96.86314944006173, 0.0, 29.662084962982956, 0.0], [158.80801657559016, 396.0896383850078, 154.33907443566216, 0.0, -8.960141262942804, 0.0], [93.60590123152146, 159.815493035355, 296.9979472632115, 0.0, 2.985838056675709, 0.0], [0.00015622327755068573, -0.0005780364602615107, 0.0013639961796174712, 88.18473342807458, 0.00022066658787205394, -15.318324050204513], [28.697415168480433, -7.949884253515886, 1.0857700604298517, 0.0, 81.3654661130441, 0.0], [0.000248420181197599, -4.911336915559204e-05, 0.0001375067669649498, -16.728671571683154, -0.00010138340728118624, 124.54978130171446]], 'compliance_tensor': [[4.4, -1.4, -0.8, 0.0, -0.3, 0.0], [-1.4, 3.7, -1.4, 0.0, -0.9, 0.0], [-0.8, -1.4, 4.1, 0.0, 2.0, 0.0], [0.0, 0.0, 0.0, 7.8, 0.0, -0.8], [-0.3, -0.9, 2.0, 0.0, 11.6, 0.0], [0.0, 0.0, 0.0, -0.8, 0.0, 12.0]], 'warnings': [], 'nsites': 12}",0,99,205,0.39,0.29,255.42
60,mp-3576,HfGaCo2,"{'Hf': 1.0, 'Ga': 1.0, 'Co': 2.0}",0.149788507,11.08926106,"{'G_Reuss': 75.0, 'G_VRH': 77.0, 'G_Voigt': 79.0, 'G_Voigt_Reuss_Hill': 77.0, 'K_Reuss': 174.0, 'K_VRH': 174.0, 'K_Voigt': 174.0, 'K_Voigt_Reuss_Hill': 174.0, 'elastic_anisotropy': 0.23, 'elastic_tensor': [[253.0, 135.0, 135.0, 0.0, 0.0, 0.0], [135.0, 253.0, 135.0, 0.0, 0.0, 0.0], [135.0, 135.0, 253.0, 0.0, 0.0, 0.0], [0.0, 0.0, 0.0, 92.0, 0.0, 0.0], [0.0, 0.0, 0.0, 0.0, 92.0, 0.0], [0.0, 0.0, 0.0, 0.0, 0.0, 92.0]], 'homogeneous_poisson': 0.31, 'poisson_ratio': 0.31, 'universal_anisotropy': 0.23, 'elastic_tensor_original': [[251.31638537788484, 133.97640451044717, 133.97640451044717, 0.0, 0.0, 0.0], [135.10376011905902, 254.43134795528317, 135.10376011905902, 0.0, 0.0, 0.0], [135.09218591823364, 135.09218591823364, 254.42395965861476, 0.0, 0.0, 0.0], [-0.00035458347015391217, -0.000660140254725089, -0.00042509349736214553, 91.85346407641191, 0.0, 0.0], [-0.000716683609875053, -0.00042436016374510177, -1.616000623551321e-05, 0.0, 91.8526473394301, 0.0], [1.9193340740831642e-05, 8.030336431966782e-05, 0.00011391671062358966, 0.0, 0.0, 91.85342748973115]], 'compliance_tensor': [[6.3, -2.2, -2.2, 0.0, -0.0, -0.0], [-2.2, 6.3, -2.2, -0.0, -0.0, 0.0], [-2.2, -2.2, 6.3, -0.0, 0.0, 0.0], [0.0, -0.0, -0.0, 10.9, -0.0, -0.0], [-0.0, -0.0, 0.0, -0.0, 10.9, 0.0], [-0.0, 0.0, 0.0, -0.0, 0.0, 10.9]], 'warnings': [], 'nsites': 4}",0,77,174,0.23,0.31,201.74
61,mp-3650,HfCu2Te3,"{'Hf': 1.0, 'Cu': 2.0, 'Te': 3.0}",0.227615543,7.568477435,"{'G_Reuss': 23.0, 'G_VRH': 23.0, 'G_Voigt': 24.0, 'G_Voigt_Reuss_Hill': 23.0, 'K_Reuss': 39.0, 'K_VRH': 40.0, 'K_Voigt': 42.0, 'K_Voigt_Reuss_Hill': 40.0, 'elastic_anisotropy': 0.36, 'elastic_tensor': [[87.0, 24.0, 19.0, 0.0, 7.0, 0.0], [24.0, 88.0, 25.0, 0.0, 4.0, 0.0], [19.0, 25.0, 67.0, 0.0, 6.0, 0.0], [0.0, 0.0, 0.0, 21.0, 0.0, 1.0], [7.0, 4.0, 6.0, 0.0, 18.0, 0.0], [0.0, 0.0, 0.0, 1.0, 0.0, 22.0]], 'homogeneous_poisson': 0.26, 'poisson_ratio': 0.26, 'universal_anisotropy': 0.36, 'elastic_tensor_original': [[87.84829528006554, 22.910180560151804, 25.96576743878932, -4.132572716800376, 0.0, 0.0], [22.850337878240882, 80.96222297305783, 20.48244839002019, -11.558571607436997, 0.0, 0.0], [26.354814359519324, 19.546166275126257, 70.32635257357039, -5.175668875009859, 0.0, 0.0], [-3.8425540902489392, -11.168533158067515, -4.034773047905271, 19.446940830298153, 0.0, 0.0], [-0.033585361552551554, -0.017111042539000035, -0.09087609562386659, -0.012537612770881784, 21.45465314995952, -1.1343185163543559], [-0.015666524808456383, -0.015237286196241895, -0.02607783607448274, 0.010492730864739437, -1.1199613207385422, 21.87218547927243]], 'compliance_tensor': [[13.1, -2.8, -2.3, 0.0, -3.8, 0.0], [-2.8, 13.3, -4.1, 0.0, -0.6, 0.0], [-2.3, -4.1, 17.5, 0.0, -4.2, 0.0], [0.0, 0.0, 0.0, 47.4, 0.0, -2.2], [-3.8, -0.6, -4.2, 0.0, 57.9, 0.0], [0.0, 0.0, 0.0, -2.2, 0.0, 45.2]], 'warnings': [], 'nsites': 12}",0,23,40,0.36,0.26,57.96
62,mp-504659,Hf2P,"{'Hf': 2.0, 'P': 1.0}",0.105057017,11.58532096,"{'G_Reuss': 73.0, 'G_VRH': 76.0, 'G_Voigt': 79.0, 'G_Voigt_Reuss_Hill': 76.0, 'K_Reuss': 149.0, 'K_VRH': 149.0, 'K_Voigt': 149.0, 'K_Voigt_Reuss_Hill': 149.0, 'elastic_anisotropy': 0.37, 'elastic_tensor': [[245.0, 84.0, 115.0, 0.0, 0.0, 0.0], [84.0, 251.0, 115.0, 0.0, 0.0, 0.0], [115.0, 115.0, 215.0, 0.0, 0.0, 0.0], [0.0, 0.0, 0.0, 104.0, 0.0, 0.0], [0.0, 0.0, 0.0, 0.0, 95.0, 0.0], [0.0, 0.0, 0.0, 0.0, 0.0, 63.0]], 'homogeneous_poisson': 0.28, 'poisson_ratio': 0.28, 'universal_anisotropy': 0.37, 'elastic_tensor_original': [[215.08732731049753, 115.84877475376649, 114.69828224774156, 0.0, 0.0, 0.0], [114.29449052723207, 244.77758802087757, 84.18506642715438, 0.0, 0.0, 0.0], [114.84216427428166, 84.51639571235717, 251.2346971547202, 0.0, 0.0, 0.0], [2.3533326331708466e-06, -1.0699999438288684e-06, -2.986665826023409e-06, 62.5159728064732, 0.0, 0.0], [-9.000008354643698e-08, 1.6733349187308382e-06, -1.823335060022888e-06, 0.0, 104.4531535715891, 0.0], [0.09479813259096989, -0.022951169083469135, 0.0045196310810686514, 0.0, 0.0, 95.11583601794351]], 'compliance_tensor': [[5.5, -0.7, -2.6, 0.0, 0.0, 0.0], [-0.7, 5.3, -2.5, 0.0, 0.0, -0.0], [-2.6, -2.5, 7.4, 0.0, 0.0, -0.0], [0.0, 0.0, 0.0, 9.6, 0.0, 0.0], [0.0, 0.0, 0.0, 0.0, 10.5, 0.0], [0.0, -0.0, -0.0, 0.0, 0.0, 16.0]], 'warnings': [], 'nsites': 36}",0,76,149,0.37,0.28,194.56
63,mp-510691,Hf5Sn4,"{'Hf': 5.0, 'Sn': 4.0}",0.113869476,11.51977858,"{'G_Reuss': 63.0, 'G_VRH': 63.0, 'G_Voigt': 64.0, 'G_Voigt_Reuss_Hill': 63.0, 'K_Reuss': 112.0, 'K_VRH': 112.0, 'K_Voigt': 112.0, 'K_Voigt_Reuss_Hill': 112.0, 'elastic_anisotropy': 0.14, 'elastic_tensor': [[202.0, 79.0, 53.0, 0.0, 0.0, 0.0], [79.0, 202.0, 53.0, 0.0, 0.0, 0.0], [53.0, 53.0, 229.0, 0.0, 0.0, 0.0], [0.0, 0.0, 0.0, 56.0, 0.0, 0.0], [0.0, 0.0, 0.0, 0.0, 56.0, 0.0], [0.0, 0.0, 0.0, 0.0, 0.0, 61.0]], 'homogeneous_poisson': 0.26, 'poisson_ratio': 0.26, 'universal_anisotropy': 0.14, 'elastic_tensor_original': [[203.5487655166083, 77.53270725846981, 53.975858342532945, 0.0, 0.0, -2.9874354625512233e-06], [79.99135716999832, 201.59387256958044, 54.06493957283443, 0.0, 0.0, -1.3278472470375495e-05], [52.90053175406627, 52.90054263304754, 228.7682226359426, 0.0, 0.0, -3.459712220108486e-06], [-0.0002716833195233109, -0.00032755998334962563, -7.447999621398112e-05, 55.73258513708859, -3.6599998139606266e-06, 0.0], [0.00021936303162429095, -0.003761638616265201, -0.00010843342749823044, 9.333327297506836e-08, 55.87550680117344, 0.0], [-0.019887485820879406, 0.019154897926459954, -0.014227623753985862, 0.0, 0.0, 60.8601311474781]], 'compliance_tensor': [[6.0, -2.1, -0.9, 0.0, -0.0, 0.0], [-2.1, 6.0, -0.9, -0.0, 0.0, 0.0], [-0.9, -0.9, 4.8, -0.0, 0.0, -0.0], [-0.0, 0.0, -0.0, 17.9, 0.0, -0.0], [-0.0, 0.0, 0.0, 0.0, 17.9, -0.0], [0.0, 0.0, -0.0, -0.0, -0.0, 16.3]], 'warnings': [], 'nsites': 18}",0,63,112,0.14,0.26,158.76
64,mp-514,HfZn2,"{'Hf': 1.0, 'Zn': 2.0}",0.166459218,10.32375427,"{'G_Reuss': 58.0, 'G_VRH': 58.0, 'G_Voigt': 58.0, 'G_Voigt_Reuss_Hill': 58.0, 'K_Reuss': 113.0, 'K_VRH': 113.0, 'K_Voigt': 113.0, 'K_Voigt_Reuss_Hill': 113.0, 'elastic_anisotropy': 0.01, 'elastic_tensor': [[186.0, 77.0, 77.0, 0.0, 0.0, 0.0], [77.0, 186.0, 77.0, 0.0, 0.0, 0.0], [77.0, 77.0, 186.0, 0.0, 0.0, 0.0], [0.0, 0.0, 0.0, 60.0, 0.0, 0.0], [0.0, 0.0, 0.0, 0.0, 60.0, 0.0], [0.0, 0.0, 0.0, 0.0, 0.0, 60.0]], 'homogeneous_poisson': 0.28, 'poisson_ratio': 0.28, 'universal_anisotropy': 0.01, 'elastic_tensor_original': [[188.6130094116403, 75.50115354525356, 75.50115354525356, 0.0, 0.0, 0.0], [77.2011048575694, 184.99288548763718, 77.2011048575694, 0.0, 0.0, 0.0], [77.20034830180049, 77.20034830180049, 184.99611462231888, 0.0, 0.0, 0.0], [0.0005623670022259222, 0.00048529740452986874, 0.0007674771934234559, 60.454831658120526, 0.0, 0.0], [0.00042551004692052864, -0.0005247468269892747, 0.00013274349418928273, 0.0, 60.45481005087557, 0.0], [-6.640309010214836e-06, 2.319989783924666e-05, -0.0003122105536235965, 0.0, 0.0, 60.454694274053175]], 'compliance_tensor': [[7.1, -2.1, -2.1, 0.0, 0.0, -0.0], [-2.1, 7.1, -2.1, -0.0, 0.0, 0.0], [-2.1, -2.1, 7.1, 0.0, -0.0, 0.0], [0.0, -0.0, 0.0, 16.5, -0.0, -0.0], [0.0, 0.0, -0.0, -0.0, 16.5, -0.0], [-0.0, 0.0, 0.0, -0.0, -0.0, 16.5]], 'warnings': [], 'nsites': 6}",0,58,113,0.01,0.28,148.48
65,mp-5221,HfAlCo2,"{'Hf': 1.0, 'Al': 1.0, 'Co': 2.0}",0.139525603,9.779117756,"{'G_Reuss': 88.0, 'G_VRH': 89.0, 'G_Voigt': 89.0, 'G_Voigt_Reuss_Hill': 89.0, 'K_Reuss': 172.0, 'K_VRH': 172.0, 'K_Voigt': 172.0, 'K_Voigt_Reuss_Hill': 172.0, 'elastic_anisotropy': 0.05, 'elastic_tensor': [[277.0, 120.0, 120.0, 0.0, 0.0, 0.0], [120.0, 277.0, 120.0, 0.0, 0.0, 0.0], [120.0, 120.0, 277.0, 0.0, 0.0, 0.0], [0.0, 0.0, 0.0, 97.0, 0.0, 0.0], [0.0, 0.0, 0.0, 0.0, 97.0, 0.0], [0.0, 0.0, 0.0, 0.0, 0.0, 97.0]], 'homogeneous_poisson': 0.28, 'poisson_ratio': 0.28, 'universal_anisotropy': 0.05, 'elastic_tensor_original': [[276.9880014451786, 120.17709314050221, 120.17709314050221, 0.0, 0.0, 0.0], [120.16968325429252, 276.97915466546436, 120.16968325429252, 0.0, 0.0, 0.0], [119.8845309315549, 119.8845309315549, 276.6957341079175, 0.0, 0.0, 0.0], [-0.0002759125812834586, -0.000101659288528449, -0.00015882595031817688, 96.65794939842448, 0.0, 0.0], [-0.0006537261263055252, -0.00044195635822950625, -0.00020425272762747215, 0.0, 96.65775800184353, 0.0], [0.0003900961718986138, 0.0003246893518263449, 0.00029947940601212947, 0.0, 0.0, 96.65796073817671]], 'compliance_tensor': [[4.9, -1.5, -1.5, 0.0, -0.0, 0.0], [-1.5, 4.9, -1.5, 0.0, 0.0, -0.0], [-1.5, -1.5, 4.9, -0.0, 0.0, 0.0], [0.0, 0.0, -0.0, 10.3, -0.0, -0.0], [-0.0, 0.0, 0.0, -0.0, 10.3, -0.0], [0.0, -0.0, 0.0, -0.0, -0.0, 10.3]], 'warnings': [], 'nsites': 4}",0,89,172,0.05,0.28,227.84