,mp_id,Formula,Composition,IPF,Density,Elastic_Tensor,E_above_Hull,G_VRH,K_VRH,Elastic_Anisotropy,poisson_ratio,Y_Modulus
79,mp-865178,Hf2IrRh,"{'Hf': 2.0, 'Ir': 1.0, 'Rh': 1.0}",0.12464155,15.42087892,"{'G_Reuss': -3.0, 'G_VRH': 16.0, 'G_Voigt': 35.0, 'G_Voigt_Reuss_Hill': 16.0, 'K_Reuss': 193.0, 'K_VRH': 193.0, 'K_Voigt': 193.0, 'K_Voigt_Reuss_Hill': 193.0, 'elastic_anisotropy': -60.45, 'elastic_tensor': [[191.0, 194.0, 194.0, 0.0, 0.0, 0.0], [194.0, 191.0, 194.0, 0.0, 0.0, 0.0], [194.0, 194.0, 191.0, 0.0, 0.0, 0.0], [0.0, 0.0, 0.0, 59.0, 0.0, 0.0], [0.0, 0.0, 0.0, 0.0, 59.0, 0.0], [0.0, 0.0, 0.0, 0.0, 0.0, 59.0]], 'homogeneous_poisson': 0.46, 'poisson_ratio': 0.46, 'universal_anisotropy': -60.45, 'elastic_tensor_original': [[191.41803458051655, 193.878877728175, 193.878877728175, 0.0, 0.0, 0.0], [193.88078032768314, 191.41946840491264, 193.88078032768314, 0.0, 0.0, 0.0], [193.9785796388482, 193.9785796388482, 191.5206437851955, 0.0, 0.0, 0.0], [4.434333107898709e-05, 4.8886664180351565e-05, 4.8909997513535594e-05, 59.47504819916827, 0.0, 0.0], [8.66899955922935e-05, 3.6953331455268665e-05, 5.6426663797697634e-05, 0.0, 59.47505267250139, 0.0], [0.0001397433262297941, 9.86133283191958e-05, 8.974999543725347e-05, 0.0, 0.0, 59.475069952500505]], 'compliance_tensor': [[-270.4, 136.1, 136.1, 0.0, 0.0, -0.0], [136.1, -270.4, 136.1, -0.0, 0.0, 0.0], [136.1, 136.1, -270.4, 0.0, -0.0, 0.0], [0.0, -0.0, 0.0, 16.8, 0.0, 0.0], [0.0, 0.0, -0.0, 0.0, 16.8, 0.0], [-0.0, 0.0, 0.0, 0.0, 0.0, 16.8]], 'warnings': ['Elastic tensor has a negative eigenvalue', 'c11 and c12 are within 5% or c12 is greater than c11', 'c11 and c13 are within 5% or c13 is greater than c11', 'c11 and c23 are within 5% or c23 is greater than c11', 'One or more K, G below 2 GPa'], 'nsites': 4}",0,16,193,-60.45,0.46,46.72
80,mp-865500,Na2Hf2O5,"{'Na': 2.0, 'Hf': 2.0, 'O': 5.0}",0.469728617,6.266217796,"{'G_Reuss': 37.0, 'G_VRH': 33.0, 'G_Voigt': 28.0, 'G_Voigt_Reuss_Hill': 33.0, 'K_Reuss': 92.0, 'K_VRH': 99.0, 'K_Voigt': 107.0, 'K_Voigt_Reuss_Hill': 99.0, 'elastic_anisotropy': -0.96, 'elastic_tensor': [[125.0, 199.0, 48.0, 0.0, 0.0, 0.0], [199.0, 125.0, 48.0, 0.0, 0.0, 0.0], [48.0, 48.0, 120.0, 0.0, 0.0, 0.0], [0.0, 0.0, 0.0, 15.0, 0.0, 0.0], [0.0, 0.0, 0.0, 0.0, 15.0, 0.0], [0.0, 0.0, 0.0, 0.0, 0.0, 87.0]], 'homogeneous_poisson': 0.35, 'poisson_ratio': 0.35, 'universal_anisotropy': -0.96, 'elastic_tensor_original': [[124.99854898941574, 199.09026978642123, 47.088286270864245, 0.0, 0.0, 0.0], [199.09040038341345, 125.0097987304627, 47.086005180788305, 0.0, 0.0, 0.0], [48.02288472842548, 48.02288472842548, 120.24035025555632, 0.0, 0.0, 0.0], [-0.1962153597233694, 0.3397600753237357, -0.2508945175627226, 14.966645889407603, 0.0, 0.0], [-0.1497295670441793, 0.2118666386828876, -0.17382764163277506, 0.0, 14.992423847104485, 0.0], [0.00017073698481979272, -3.1326725041059917e-05, 0.00010508352914605732, 0.0, 0.0, 86.89998957299234]], 'compliance_tensor': [[-5.0, 8.5, -1.4, -0.0, -0.0, 0.0], [8.5, -5.0, -1.4, 0.0, 0.0, 0.0], [-1.4, -1.4, 9.4, 0.0, 0.0, -0.0], [-0.0, 0.0, 0.0, 66.8, -0.0, -0.0], [-0.0, 0.0, 0.0, -0.0, 66.8, 0.0], [0.0, 0.0, -0.0, -0.0, 0.0, 11.5]], 'warnings': ['Elastic tensor has a negative eigenvalue', 'c11 and c12 are within 5% or c12 is greater than c11'], 'nsites': 9}",0,33,99,-0.96,0.35,89.1
81,mp-865759,YbHfRh2,"{'Yb': 1.0, 'Hf': 1.0, 'Rh': 2.0}",0.159977703,13.01941347,"{'G_Reuss': 42.0, 'G_VRH': 42.0, 'G_Voigt': 42.0, 'G_Voigt_Reuss_Hill': 42.0, 'K_Reuss': 137.0, 'K_VRH': 137.0, 'K_Voigt': 137.0, 'K_Voigt_Reuss_Hill': 137.0, 'elastic_anisotropy': 0.02, 'elastic_tensor': [[198.0, 107.0, 107.0, 0.0, 0.0, 0.0], [107.0, 198.0, 107.0, 0.0, 0.0, 0.0], [107.0, 107.0, 198.0, 0.0, 0.0, 0.0], [0.0, 0.0, 0.0, 40.0, 0.0, 0.0], [0.0, 0.0, 0.0, 0.0, 40.0, 0.0], [0.0, 0.0, 0.0, 0.0, 0.0, 40.0]], 'homogeneous_poisson': 0.36, 'poisson_ratio': 0.36, 'universal_anisotropy': 0.02, 'elastic_tensor_original': [[197.50727764569052, 106.54278143007409, 106.54278143007409, 0.0, 0.0, 0.0], [106.54278143007409, 197.50727764569052, 106.54278143007409, 0.0, 0.0, 0.0], [106.54278143007409, 106.54278143007409, 197.50727764569052, 0.0, 0.0, 0.0], [0.0, 0.0, 0.0, 40.15157301151802, -0.019869120789519332, 0.0], [0.0, 0.0, 0.0, 0.01986912078951882, 40.15157301151802, 0.0], [0.0, 0.0, 0.0, 0.0, 0.01986862078899782, 40.151566011510695]], 'compliance_tensor': [[8.1, -2.9, -2.9, 0.0, -0.0, 0.0], [-2.9, 8.1, -2.9, -0.0, 0.0, -0.0], [-2.9, -2.9, 8.1, -0.0, -0.0, 0.0], [0.0, -0.0, -0.0, 24.9, 0.0, -0.0], [-0.0, 0.0, -0.0, 0.0, 24.9, -0.0], [0.0, -0.0, 0.0, -0.0, -0.0, 24.9]], 'warnings': ['Contains a rare earth element'], 'nsites': 4}",0,42,137,0.02,0.36,114.24
82,mp-866108,HfZn3,"{'Hf': 1.0, 'Zn': 3.0}",0.171532246,9.584429998,"{'G_Reuss': -35.0, 'G_VRH': -6.0, 'G_Voigt': 23.0, 'G_Voigt_Reuss_Hill': -6.0, 'K_Reuss': 103.0, 'K_VRH': 103.0, 'K_Voigt': 103.0, 'K_Voigt_Reuss_Hill': 103.0, 'elastic_anisotropy': -8.27, 'elastic_tensor': [[109.0, 128.0, 69.0, 0.0, 0.0, 0.0], [128.0, 109.0, 69.0, 0.0, 0.0, 0.0], [69.0, 69.0, 176.0, 0.0, 0.0, 0.0], [0.0, 0.0, 0.0, 40.0, 0.0, 0.0], [0.0, 0.0, 0.0, 0.0, 40.0, 0.0], [0.0, 0.0, 0.0, 0.0, 0.0, -9.0]], 'homogeneous_poisson': 0.53, 'poisson_ratio': 0.53, 'universal_anisotropy': -8.27, 'elastic_tensor_original': [[96.25298248880343, 147.80072753328312, 60.034069641308214, 0.0, 0.0, 0.0], [135.79023949177022, 93.77397458945853, 81.89534102737058, 0.0, 0.0, 0.0], [67.8709008988023, 67.87089851918965, 176.33874869402842, 0.0, 0.0, 0.0], [-0.0059564175348601435, -0.00014661851867406921, -0.001155532794770969, 39.65048163456274, 0.0, 0.0], [-2.0223389503423732e-05, 0.0002280973001995106, -6.225350623572969e-05, 0.0, 40.39104927150782, 0.0], [-0.0035571430846827127, -0.014678635695689505, -0.02344609054337147, 0.0, 0.0, 4.650702241664241]], 'compliance_tensor': [[-23.9, 29.4, -2.2, 0.0, -0.0, 0.0], [29.4, -23.9, -2.2, 0.0, 0.0, 0.0], [-2.2, -2.2, 7.4, -0.0, 0.0, 0.0], [0.0, 0.0, -0.0, 25.0, -0.0, 0.0], [-0.0, 0.0, 0.0, -0.0, 25.0, 0.0], [0.0, 0.0, 0.0, -0.0, 0.0, -106.7]], 'warnings': ['Elastic tensor has a negative eigenvalue', 'c11 and c12 are within 5% or c12 is greater than c11', 'One or more K, G below 2 GPa'], 'nsites': 8}",0,-6,103,-8.27,0.53,-18.36
83,mp-866219,HfSnRu2,"{'Hf': 1.0, 'Sn': 1.0, 'Ru': 2.0}",0.110105503,12.35904997,"{'G_Reuss': 109.0, 'G_VRH': 109.0, 'G_Voigt': 109.0, 'G_Voigt_Reuss_Hill': 109.0, 'K_Reuss': 202.0, 'K_VRH': 202.0, 'K_Voigt': 202.0, 'K_Voigt_Reuss_Hill': 202.0, 'elastic_anisotropy': 0.0, 'elastic_tensor': [[351.0, 128.0, 128.0, 0.0, 0.0, 0.0], [128.0, 351.0, 128.0, 0.0, 0.0, 0.0], [128.0, 128.0, 351.0, 0.0, 0.0, 0.0], [0.0, 0.0, 0.0, 107.0, 0.0, 0.0], [0.0, 0.0, 0.0, 0.0, 107.0, 0.0], [0.0, 0.0, 0.0, 0.0, 0.0, 107.0]], 'homogeneous_poisson': 0.27, 'poisson_ratio': 0.27, 'universal_anisotropy': 0.0, 'elastic_tensor_original': [[350.8127595008708, 127.87347675830773, 127.87347675830773, 0.0, 0.0, 0.0], [127.81155247235539, 351.30405282361374, 127.81155247235539, 0.0, 0.0, 0.0], [127.81271675083758, 127.81271675083758, 351.30520869274295, 0.0, 0.0, 0.0], [0.0023453560971589908, 0.0023927494189838806, 0.002455752737018601, 106.64226155138313, 0.0, 0.0], [-0.0003910965716988389, -0.0012968796850859237, -0.0002869299303264358, 0.0, 106.64247685799751, 0.0], [0.005070925435326524, 0.005105198760336307, 0.005959095219657822, 0.0, 0.0, 106.64250758465673]], 'compliance_tensor': [[3.5, -0.9, -0.9, 0.0, -0.0, -0.0], [-0.9, 3.5, -0.9, -0.0, 0.0, -0.0], [-0.9, -0.9, 3.5, -0.0, -0.0, 0.0], [0.0, -0.0, -0.0, 9.4, -0.0, -0.0], [-0.0, 0.0, -0.0, -0.0, 9.4, -0.0], [-0.0, -0.0, 0.0, -0.0, -0.0, 9.4]], 'warnings': [], 'nsites': 4}",0,109,202,0,0.27,276.86
84,mp-867834,LiHfPt2,"{'Li': 1.0, 'Hf': 1.0, 'Pt': 2.0}",0.153268375,14.65485719,"{'G_Reuss': 10.0, 'G_VRH': 18.0, 'G_Voigt': 27.0, 'G_Voigt_Reuss_Hill': 18.0, 'K_Reuss': 143.0, 'K_VRH': 143.0, 'K_Voigt': 143.0, 'K_Voigt_Reuss_Hill': 143.0, 'elastic_anisotropy': 8.13, 'elastic_tensor': [[149.0, 140.0, 140.0, 0.0, 0.0, 0.0], [140.0, 149.0, 140.0, 0.0, 0.0, 0.0], [140.0, 140.0, 149.0, 0.0, 0.0, 0.0], [0.0, 0.0, 0.0, 41.0, 0.0, 0.0], [0.0, 0.0, 0.0, 0.0, 41.0, 0.0], [0.0, 0.0, 0.0, 0.0, 0.0, 41.0]], 'homogeneous_poisson': 0.44, 'poisson_ratio': 0.44, 'universal_anisotropy': 8.13, 'elastic_tensor_original': [[152.31783202110267, 138.75319586417558, 138.75319586417558, 0.0, 0.0, 0.0], [140.2721933381586, 147.70459371574762, 140.2721933381586, 0.0, 0.0, 0.0], [140.2759436649404, 140.2759436649404, 147.70709039509399, 0.0, 0.0, 0.0], [9.820660506791248e-05, 4.317994057887944e-05, 5.6363268001606614e-05, 41.01476583916062, 0.0, 0.0], [-0.0008954169036479465, -0.0011850235166221677, -0.0012102202408232148, 0.0, 41.01724948644465, 0.0], [0.0006158901693782878, 0.0007920935137969411, 0.0008676968405914574, 0.0, 0.0, 41.01548655938971]], 'compliance_tensor': [[71.1, -34.4, -34.4, 0.0, -0.0, -0.0], [-34.4, 71.1, -34.4, -0.0, 0.0, -0.0], [-34.4, -34.4, 71.1, -0.0, -0.0, 0.0], [0.0, -0.0, -0.0, 24.4, -0.0, -0.0], [-0.0, 0.0, -0.0, -0.0, 24.4, -0.0], [-0.0, -0.0, 0.0, -0.0, -0.0, 24.4]], 'warnings': [], 'nsites': 4}",0,18,143,8.13,0.44,51.84
85,mp-924128,HfNiSn,"{'Hf': 1.0, 'Ni': 1.0, 'Sn': 1.0}",0.116618288,10.34045801,"{'G_Reuss': 80.0, 'G_VRH': 80.0, 'G_Voigt': 81.0, 'G_Voigt_Reuss_Hill': 80.0, 'K_Reuss': 105.0, 'K_VRH': 105.0, 'K_Voigt': 105.0, 'K_Voigt_Reuss_Hill': 105.0, 'elastic_anisotropy': 0.01, 'elastic_tensor': [[219.0, 48.0, 48.0, 0.0, 0.0, 0.0], [48.0, 219.0, 48.0, 0.0, 0.0, 0.0], [48.0, 48.0, 219.0, 0.0, 0.0, 0.0], [0.0, 0.0, 0.0, 77.0, 0.0, 0.0], [0.0, 0.0, 0.0, 0.0, 77.0, 0.0], [0.0, 0.0, 0.0, 0.0, 0.0, 77.0]], 'homogeneous_poisson': 0.19, 'poisson_ratio': 0.19, 'universal_anisotropy': 0.01, 'elastic_tensor_original': [[218.68610051600834, 48.184596293431284, 48.184612093765914, -2.3600499831002126e-05, -4.3400919180741197e-05, -7.800165198382061e-06], [48.184627786086914, 218.68610051602252, 48.1846278400966, -5.127409348923915e-05, -1.576530883603778e-05, -3.580538172740506e-05], [48.18461209376335, 48.18459629344698, 218.68610051599674, -7.941092448754171e-05, -4.3400919126216215e-05, -7.892134463766688e-06], [0.0, -5.063834530673295e-05, -2.531916485889443e-05, 77.47807968721351, -1.2675277829794135e-05, -1.2659586872977316e-05], [-2.531917995934669e-05, 0.0, -2.5319179678831614e-05, 1.5690946864909608e-08, 77.47807968720932, -2.531918203185011e-05], [-2.531917925396146e-05, 0.0, 0.0, -1.2659591016605e-05, -1.2643904203654776e-05, 77.4780796872052]], 'compliance_tensor': [[5.0, -0.9, -0.9, -0.0, 0.0, 0.0], [-0.9, 5.0, -0.9, 0.0, -0.0, 0.0], [-0.9, -0.9, 5.0, 0.0, 0.0, -0.0], [-0.0, 0.0, 0.0, 12.9, 0.0, 0.0], [0.0, -0.0, 0.0, 0.0, 12.9, 0.0], [0.0, 0.0, -0.0, 0.0, 0.0, 12.9]], 'warnings': [], 'nsites': 3}",0,80,105,0.01,0.19,190.4
86,mp-976273,Hf3Ge2,"{'Hf': 3.0, 'Ge': 2.0}",0.121453914,11.89511185,"{'G_Reuss': 82.0, 'G_VRH': 84.0, 'G_Voigt': 86.0, 'G_Voigt_Reuss_Hill': 84.0, 'K_Reuss': 129.0, 'K_VRH': 129.0, 'K_Voigt': 130.0, 'K_Voigt_Reuss_Hill': 129.0, 'elastic_anisotropy': 0.22, 'elastic_tensor': [[195.0, 87.0, 87.0, 0.0, 0.0, 0.0], [87.0, 252.0, 61.0, 0.0, 0.0, 0.0], [87.0, 61.0, 252.0, 0.0, 0.0, 0.0], [0.0, 0.0, 0.0, 75.0, 0.0, 0.0], [0.0, 0.0, 0.0, 0.0, 99.0, 0.0], [0.0, 0.0, 0.0, 0.0, 0.0, 99.0]], 'homogeneous_poisson': 0.23, 'poisson_ratio': 0.23, 'universal_anisotropy': 0.22, 'elastic_tensor_original': [[194.7074574097242, 86.59845248254767, 86.59845248254767, 0.0, 0.0, 0.0], [87.02270236810948, 251.9573575768399, 60.901283047968775, 0.0, 0.0, 0.0], [87.02270236810948, 60.901283047968775, 251.9573575768399, 0.0, 0.0, 0.0], [0.0, 0.7501374765310663, -0.7501374765310663, 75.01013044646895, 0.0, 0.0], [0.0, 0.0, 0.0, 0.0, 99.0931216244212, 0.0], [0.0, 0.0, 0.0, 0.0, 0.0, 99.0931216244212]], 'compliance_tensor': [[6.824454539848196, -1.893618274483255, -1.8936182744832546, -1.2364253852989878e-34, 0.0, 0.0], [-1.8936182744832546, 4.740631087395114, -0.49343436938724244, -1.4525487960577794e-18, 0.0, 0.0], [-1.8936182744832546, -0.49343436938724244, 4.740631087395113, 1.4525487960577796e-18, 0.0, 0.0], [0.0, -1.4525487960577794e-18, 1.4525487960577794e-18, 13.331532608300833, 0.0, 0.0], [0.0, 0.0, 0.0, 0.0, 10.09151779262904, 0.0], [0.0, 0.0, 0.0, 0.0, 0.0, 10.09151779262904]], 'warnings': [], 'nsites': 10}",0,84,129,0.22,0.23,206.64
87,mp-9922,HfS3,"{'Hf': 1.0, 'S': 3.0}",0.124314709,5.091838017,"{'G_Reuss': 3.0, 'G_VRH': 12.0, 'G_Voigt': 21.0, 'G_Voigt_Reuss_Hill': 12.0, 'K_Reuss': 6.0, 'K_VRH': 18.0, 'K_Voigt': 31.0, 'K_Voigt_Reuss_Hill': 18.0, 'elastic_anisotropy': 32.49, 'elastic_tensor': [[6.0, 2.0, 2.0, 0.0, 0.0, 0.0], [2.0, 139.0, 19.0, 0.0, 0.0, 0.0], [2.0, 19.0, 88.0, 0.0, -0.0, 0.0], [0.0, 0.0, 0.0, 31.0, 0.0, 0.0], [0.0, 0.0, -0.0, 0.0, 1.0, 0.0], [0.0, 0.0, 0.0, 0.0, 0.0, 2.0]], 'homogeneous_poisson': 0.23, 'poisson_ratio': 0.23, 'universal_anisotropy': 32.49, 'elastic_tensor_original': [[138.83606679881, 18.906130388751468, 2.344616363900942, 0.5653378314650404, 0.0, 0.0], [18.16099855942173, 87.94336133532748, 2.2640214085565615, -0.37308978353377303, 0.0, 0.0], [1.0715660602360435, 2.525651108516643, 6.252721832370803, 0.8160858955565541, 0.0, 0.0], [-0.39564248781431965, 0.10375745006735469, -0.6042259880058217, 1.42385918723458, 0.0, 0.0], [-0.020703765417267917, -0.0650662833619707, 0.027065442133696212, -0.012865724839164145, 1.6244692866237174, -0.06142797204055113], [-0.00038665660411042074, -0.00521525292332894, -0.003919563213845063, -0.001169323331776692, 0.05752693961470214, 30.775796739053224]], 'compliance_tensor': [[162.1, -1.4, -4.1, 0.0, -12.2, 0.0], [-1.4, 7.4, -1.5, 0.0, -0.5, 0.0], [-4.1, -1.5, 11.8, 0.0, 1.1, 0.0], [0.0, 0.0, 0.0, 32.5, 0.0, -0.3], [-12.2, -0.5, 1.1, 0.0, 703.4, 0.0], [0.0, 0.0, 0.0, -0.3, 0.0, 615.6]], 'warnings': ['c11 and c23 are within 5% or c23 is greater than c11'], 'nsites': 8}",0,12,18,32.49,0.23,29.52
88,mp-9938,Hf2Si,"{'Hf': 2.0, 'Si': 1.0}",0.103216467,11.37026205,"{'G_Reuss': 99.0, 'G_VRH': 100.0, 'G_Voigt': 101.0, 'G_Voigt_Reuss_Hill': 100.0, 'K_Reuss': 141.0, 'K_VRH': 141.0, 'K_Voigt': 141.0, 'K_Voigt_Reuss_Hill': 141.0, 'elastic_anisotropy': 0.1, 'elastic_tensor': [[269.0, 78.0, 78.0, 0.0, 0.0, 0.0], [78.0, 258.0, 87.0, 0.0, 0.0, 0.0], [78.0, 87.0, 258.0, 0.0, 0.0, 0.0], [0.0, 0.0, 0.0, 88.0, 0.0, 0.0], [0.0, 0.0, 0.0, 0.0, 117.0, 0.0], [0.0, 0.0, 0.0, 0.0, 0.0, 117.0]], 'homogeneous_poisson': 0.21, 'poisson_ratio': 0.21, 'universal_anisotropy': 0.1, 'elastic_tensor_original': [[258.0993759909632, 87.00946698995132, 77.62853375203355, 0.0, 0.0, 0.0], [87.00743710507126, 258.0970035941833, 77.62822762849403, 0.0, 0.0, 0.0], [77.76853436169017, 77.76853436169017, 268.63451291538405, 0.0, 0.0, 0.0], [0.0002447964234557276, 3.0869675792074704e-05, 5.642624621637445e-05, 117.36987994377209, 0.0, 0.0], [-4.2043238527909356e-05, 0.0002516897983775155, 0.00020035637129776896, 0.0, 117.3696415211028, 0.0], [-6.83431838347985e-05, -5.769831253491447e-06, -0.0001612597616304658, 0.0, 0.0, 87.57537499816864]], 'compliance_tensor': [[4.3, -1.0, -1.0, 0.0, 0.0, -0.0], [-1.0, 4.6, -1.3, 0.0, 0.0, 0.0], [-1.0, -1.3, 4.6, -0.0, 0.0, -0.0], [0.0, 0.0, -0.0, 11.4, 0.0, 0.0], [0.0, 0.0, 0.0, 0.0, 8.5, 0.0], [-0.0, 0.0, -0.0, 0.0, 0.0, 8.5]], 'warnings': [], 'nsites': 6}",0,100,141,0.1,0.21,242
89,mp-9939,Hf2Ge,"{'Hf': 2.0, 'Ge': 1.0}",0.12082842,12.21434254,"{'G_Reuss': 92.0, 'G_VRH': 93.0, 'G_Voigt': 94.0, 'G_Voigt_Reuss_Hill': 93.0, 'K_Reuss': 133.0, 'K_VRH': 133.0, 'K_Voigt': 133.0, 'K_Voigt_Reuss_Hill': 133.0, 'elastic_anisotropy': 0.09, 'elastic_tensor': [[259.0, 70.0, 70.0, 0.0, 0.0, 0.0], [70.0, 246.0, 81.0, 0.0, 0.0, 0.0], [70.0, 81.0, 246.0, 0.0, 0.0, 0.0], [0.0, 0.0, 0.0, 78.0, 0.0, 0.0], [0.0, 0.0, 0.0, 0.0, 108.0, 0.0], [0.0, 0.0, 0.0, 0.0, 0.0, 108.0]], 'homogeneous_poisson': 0.22, 'poisson_ratio': 0.22, 'universal_anisotropy': 0.09, 'elastic_tensor_original': [[246.05111569503165, 80.97560926542863, 69.82077544567467, 0.0, 0.0, 0.0], [80.97491036457541, 246.05163395297177, 69.82103128554759, 0.0, 0.0, 0.0], [70.93272838994837, 70.93272838994837, 258.66890455691237, 0.0, 0.0, 0.0], [-0.0001251867572294003, -1.9146680512312506e-05, -5.536670672008203e-05, 107.50307555072277, 0.0, 0.0], [-8.233339276645007e-07, 0.00011582675045927357, 5.7480041583451375e-05, 0.0, 107.50304176736502, 0.0], [-1.39166755219625e-05, -1.8936678717350158e-05, 6.373337389249427e-06, 0.0, 0.0, 78.30417911420018]], 'compliance_tensor': [[4.4, -0.9, -0.9, -0.0, 0.0, 0.0], [-0.9, 4.8, -1.3, 0.0, -0.0, -0.0], [-0.9, -1.3, 4.8, 0.0, -0.0, 0.0], [-0.0, 0.0, 0.0, 12.8, -0.0, -0.0], [0.0, -0.0, -0.0, -0.0, 9.3, 0.0], [0.0, -0.0, 0.0, -0.0, 0.0, 9.3]], 'warnings': [], 'nsites': 6}",0,93,133,0.09,0.22,226.92
90,mp-9953,HfP,"{'Hf': 1.0, 'P': 1.0}",0.09039541,9.617071687,"{'G_Reuss': 80.0, 'G_VRH': 86.0, 'G_Voigt': 91.0, 'G_Voigt_Reuss_Hill': 86.0, 'K_Reuss': 148.0, 'K_VRH': 148.0, 'K_Voigt': 149.0, 'K_Voigt_Reuss_Hill': 148.0, 'elastic_anisotropy': 0.7, 'elastic_tensor': [[222.0, 100.0, 109.0, 0.0, 0.0, 0.0], [100.0, 222.0, 109.0, 0.0, 0.0, 0.0], [109.0, 109.0, 263.0, 0.0, 0.0, 0.0], [0.0, 0.0, 0.0, 132.0, 0.0, 0.0], [0.0, 0.0, 0.0, 0.0, 132.0, 0.0], [0.0, 0.0, 0.0, 0.0, 0.0, 61.0]], 'homogeneous_poisson': 0.26, 'poisson_ratio': 0.26, 'universal_anisotropy': 0.7, 'elastic_tensor_original': [[221.54261592963994, 101.22239471488946, 109.76704262271478, 0.0, 0.0, 0.0], [99.9776905310889, 221.96072330856003, 109.12736679069965, 0.0, 0.0, 0.0], [107.81876397928998, 107.8186848028935, 262.87672105059585, 0.0, 0.0, 0.0], [-8.697639323673347e-05, 0.00013609654867441793, 2.020325793409301e-05, 132.2578484031732, 0.0, 0.0], [-2.647658970807495e-05, 8.906452745661456e-06, 1.015013934145851e-05, 0.0, 132.35490620914413, 0.0], [2.1576669241480408e-05, -3.303668855894009e-05, -1.7446674408406855e-05, 0.0, 0.0, 61.72195663980765]], 'compliance_tensor': [[6.2, -1.9, -1.8, 0.0, -0.0, -0.0], [-1.9, 6.2, -1.8, -0.0, 0.0, -0.0], [-1.8, -1.8, 5.3, 0.0, 0.0, 0.0], [0.0, -0.0, 0.0, 7.6, -0.0, 0.0], [-0.0, -0.0, 0.0, -0.0, 7.6, 0.0], [-0.0, -0.0, 0.0, -0.0, -0.0, 16.4]], 'warnings': [], 'nsites': 8}",0,86,148,0.7,0.26,216.72
91,mp-9954,HfAs,"{'Hf': 1.0, 'As': 1.0}",0.094304342,10.50738497,"{'G_Reuss': 59.0, 'G_VRH': 66.0, 'G_Voigt': 73.0, 'G_Voigt_Reuss_Hill': 66.0, 'K_Reuss': 127.0, 'K_VRH': 127.0, 'K_Voigt': 128.0, 'K_Voigt_Reuss_Hill': 127.0, 'elastic_anisotropy': 1.17, 'elastic_tensor': [[180.0, 92.0, 101.0, 0.0, 0.0, 0.0], [92.0, 180.0, 101.0, 0.0, 0.0, 0.0], [101.0, 101.0, 206.0, 0.0, 0.0, 0.0], [0.0, 0.0, 0.0, 115.0, 0.0, 0.0], [0.0, 0.0, 0.0, 0.0, 115.0, 0.0], [0.0, 0.0, 0.0, 0.0, 0.0, 44.0]], 'homogeneous_poisson': 0.28, 'poisson_ratio': 0.28, 'universal_anisotropy': 1.17, 'elastic_tensor_original': [[178.61545694208206, 93.95694660264978, 101.12057920480683, 0.0, 0.0, 0.0], [92.31012644061802, 177.72157935142056, 100.7625137890807, 0.0, 0.0, 0.0], [100.35414959294967, 100.35422107188393, 205.7188308845169, 0.0, 0.0, 0.0], [-0.0014342818967621226, 0.000996260583106458, 0.0072035192635218495, 114.99274019022292, 0.0, 0.0], [-7.55600432748965e-05, 6.93000024628722e-05, 7.089988612524524e-06, 0.0, 115.36025660011553, 0.0], [-2.622663169157378e-05, -4.5232768258060565e-06, -1.7809967072992926e-05, 0.0, 0.0, 45.356154194141745]], 'compliance_tensor': [[8.6, -2.8, -2.8, -0.0, 0.0, 0.0], [-2.8, 8.6, -2.8, -0.0, -0.0, 0.0], [-2.8, -2.8, 7.6, 0.0, -0.0, -0.0], [-0.0, -0.0, 0.0, 8.7, 0.0, -0.0], [0.0, -0.0, -0.0, 0.0, 8.7, 0.0], [0.0, 0.0, -0.0, -0.0, 0.0, 22.8]], 'warnings': [], 'nsites': 8}",0,66,127,1.17,0.28,168.96