,mp_id,Formula,Composition,IPF,Density,Elastic_Tensor,E_above_Hull,G_VRH,K_VRH,Elastic_Anisotropy,poisson_ratio,Y_Modulus
66,mp-567817,HfGeTe4,"{'Hf': 1.0, 'Ge': 1.0, 'Te': 4.0}",0.220188264,6.835810424,"{'G_Reuss': 8.0, 'G_VRH': 11.0, 'G_Voigt': 14.0, 'G_Voigt_Reuss_Hill': 11.0, 'K_Reuss': 8.0, 'K_VRH': 13.0, 'K_Voigt': 19.0, 'K_Voigt_Reuss_Hill': 13.0, 'elastic_anisotropy': 4.95, 'elastic_tensor': [[53.0, 4.0, 7.0, 0.0, 0.0, 0.0], [4.0, 9.0, 4.0, 0.0, 0.0, 0.0], [7.0, 4.0, 74.0, 0.0, 0.0, 0.0], [0.0, 0.0, 0.0, 5.0, 0.0, 0.0], [0.0, 0.0, 0.0, 0.0, 17.0, 0.0], [0.0, 0.0, 0.0, 0.0, 0.0, 8.0]], 'homogeneous_poisson': 0.18, 'poisson_ratio': 0.18, 'universal_anisotropy': 4.95, 'elastic_tensor_original': [[73.68830126303598, 4.379495099658496, 6.497143863997385, 0.0, 0.0, 0.0], [4.474051430711756, 8.88481800188776, 3.951401585948245, 0.0, 0.0, 0.0], [7.951327262035177, 3.797010266935967, 53.34699869182991, 0.0, 0.0, 0.0], [-0.019358327103961848, -0.007846586613262617, 0.023298525307335848, 8.223444045552657, 0.0, 0.0], [-0.004439365908274268, -9.976679944443776e-06, -3.4176712151845374e-05, 0.0, 16.923686760104424, 0.0], [0.004999750020274418, 0.003496378009581868, -0.030145573651684295, 0.0, 0.0, 4.6142797513919485]], 'compliance_tensor': [[19.5, -7.8, -1.4, 0.0, 0.0, 0.0], [-7.8, 119.1, -6.4, 0.0, 0.0, 0.0], [-1.4, -6.4, 14.1, 0.0, 0.0, 0.0], [0.0, 0.0, 0.0, 216.7, 0.0, 0.0], [0.0, 0.0, 0.0, 0.0, 59.1, 0.0], [0.0, 0.0, 0.0, 0.0, 0.0, 121.6]], 'warnings': [], 'nsites': 12}",0,11,13,4.95,0.18,25.96
67,mp-568002,HfI3,"{'Hf': 1.0, 'I': 3.0}",0.165849991,5.400571419,"{'G_Reuss': 1.0, 'G_VRH': 2.0, 'G_Voigt': 3.0, 'G_Voigt_Reuss_Hill': 2.0, 'K_Reuss': 3.0, 'K_VRH': 4.0, 'K_Voigt': 6.0, 'K_Voigt_Reuss_Hill': 4.0, 'elastic_anisotropy': 26.87, 'elastic_tensor': [[3.0, 3.0, 0.0, 0.0, 0.0, 0.0], [3.0, 3.0, 0.0, 0.0, 0.0, 0.0], [0.0, 0.0, 39.0, 0.0, 0.0, 0.0], [0.0, 0.0, 0.0, 1.0, 0.0, 0.0], [0.0, 0.0, 0.0, 0.0, 1.0, 0.0], [0.0, 0.0, 0.0, 0.0, 0.0, 0.0]], 'homogeneous_poisson': 0.31, 'poisson_ratio': 0.31, 'universal_anisotropy': 26.87, 'elastic_tensor_original': [[3.741910501306555, 4.064442745051122, 2.564938132694738, 0.0, 0.0, 0.0], [2.628409317918684, 2.113209719733544, 1.2238887557001825, 0.0, 0.0, 0.0], [-1.7085404426132327, -1.708540482512974, 39.18187457666051, 0.0, 0.0, 0.0], [-0.025524070641440983, -0.02804601872868644, -0.0069518880607207885, 0.8625895991080774, 0.0, 0.0], [-0.004032514091758157, -0.011022362026520328, -0.006041981064097781, 0.0, 1.1614914619004186, 0.0], [-0.012513670481382601, 0.007688164681008548, -0.003432047286953724, 0.0, 0.0, 0.7673574576115145]], 'compliance_tensor': [[975.9, -816.5, -0.4, 0.0, 0.0, 0.0], [-816.5, 975.9, -0.4, -0.0, -0.0, 0.0], [-0.4, -0.4, 25.5, 0.0, -0.0, -0.0], [0.0, -0.0, 0.0, 988.1, 0.0, -0.0], [0.0, -0.0, -0.0, 0.0, 988.1, -0.0], [0.0, 0.0, -0.0, -0.0, -0.0, 3584.7]], 'warnings': ['One or more K, G below 2 GPa'], 'nsites': 8}",0,2,4,26.87,0.31,5.24
68,mp-568718,HfAl3,"{'Hf': 1.0, 'Al': 3.0}",0.093523444,6.258946748,"{'G_Reuss': 79.0, 'G_VRH': 80.0, 'G_Voigt': 80.0, 'G_Voigt_Reuss_Hill': 80.0, 'K_Reuss': 106.0, 'K_VRH': 106.0, 'K_Voigt': 106.0, 'K_Voigt_Reuss_Hill': 106.0, 'elastic_anisotropy': 0.07, 'elastic_tensor': [[204.0, 66.0, 54.0, 0.0, 0.0, 0.0], [66.0, 204.0, 54.0, 0.0, 0.0, 0.0], [54.0, 54.0, 199.0, 0.0, 0.0, 0.0], [0.0, 0.0, 0.0, 80.0, 0.0, 0.0], [0.0, 0.0, 0.0, 0.0, 80.0, 0.0], [0.0, 0.0, 0.0, 0.0, 0.0, 98.0]], 'homogeneous_poisson': 0.2, 'poisson_ratio': 0.2, 'universal_anisotropy': 0.07, 'elastic_tensor_original': [[203.85207821017124, 66.3565133744598, 53.31716914936218, 0.0, 0.0, 0.0], [66.35588754050976, 203.8515748034099, 53.31630297415616, 0.0, 0.0, 0.0], [54.68240921799753, 54.68240921799753, 198.55458357185583, 0.0, 0.0, 0.0], [9.478654078233347e-05, 2.699329748635386e-05, 1.7396643562935294e-05, 79.69839151066222, 0.0, 0.0], [5.6389925111479445e-05, 3.9596614079040586e-05, 6.587991250720003e-05, 0.0, 79.69848611386995, 0.0], [-0.0001442331477949496, -0.00022165971486545188, -8.671988844737031e-05, 0.0, 0.0, 98.42684032456758]], 'compliance_tensor': [[5.7, -1.6, -1.1, -0.0, 0.0, 0.0], [-1.6, 5.7, -1.1, 0.0, 0.0, -0.0], [-1.1, -1.1, 5.7, -0.0, -0.0, -0.0], [-0.0, 0.0, -0.0, 12.5, 0.0, -0.0], [0.0, 0.0, -0.0, 0.0, 12.5, 0.0], [0.0, -0.0, -0.0, -0.0, 0.0, 10.2]], 'warnings': [], 'nsites': 8}",0,80,106,0.07,0.2,192
69,mp-5748,HfAlNi2,"{'Hf': 1.0, 'Al': 1.0, 'Ni': 2.0}",0.128981723,9.53065434,"{'G_Reuss': 48.0, 'G_VRH': 49.0, 'G_Voigt': 49.0, 'G_Voigt_Reuss_Hill': 49.0, 'K_Reuss': 164.0, 'K_VRH': 164.0, 'K_Voigt': 164.0, 'K_Voigt_Reuss_Hill': 164.0, 'elastic_anisotropy': 0.12, 'elastic_tensor': [[218.0, 138.0, 138.0, 0.0, 0.0, 0.0], [138.0, 218.0, 138.0, 0.0, 0.0, 0.0], [138.0, 138.0, 218.0, 0.0, 0.0, 0.0], [0.0, 0.0, 0.0, 56.0, 0.0, 0.0], [0.0, 0.0, 0.0, 0.0, 56.0, 0.0], [0.0, 0.0, 0.0, 0.0, 0.0, 56.0]], 'homogeneous_poisson': 0.36, 'poisson_ratio': 0.36, 'universal_anisotropy': 0.12, 'elastic_tensor_original': [[217.3283846547391, 138.10876257236873, 138.10876257236873, 0.0, 0.0, 0.0], [136.82233869259534, 219.18471601263306, 136.82233869259534, 0.0, 0.0, 0.0], [137.9057069421479, 137.9057069421479, 218.251057483188, 0.0, 0.0, 0.0], [-0.0006083064638125801, 0.00023383992524177405, -0.0003430800575098301, 55.55011950942504, 0.0, 0.0], [-0.00023442400047385382, -0.0003162766149742706, -0.0001610335192800855, 0.0, 55.54938422335301, 0.0], [-6.871352776237474e-05, -0.0004897640752441341, -0.0002461668327879765, 0.0, 0.0, 55.54989795358749]], 'compliance_tensor': [[8.9, -3.5, -3.5, 0.0, -0.0, 0.0], [-3.5, 8.9, -3.5, 0.0, 0.0, -0.0], [-3.5, -3.5, 8.9, -0.0, 0.0, 0.0], [0.0, 0.0, -0.0, 18.0, -0.0, -0.0], [-0.0, 0.0, 0.0, -0.0, 18.0, -0.0], [0.0, -0.0, 0.0, -0.0, -0.0, 18.0]], 'warnings': [], 'nsites': 4}",0,49,164,0.12,0.36,133.28
70,mp-722913,Hf3Zn3N,"{'Hf': 3.0, 'Zn': 3.0, 'N': 1.0}",0.158748415,11.34403775,"{'G_Reuss': 83.0, 'G_VRH': 83.0, 'G_Voigt': 83.0, 'G_Voigt_Reuss_Hill': 83.0, 'K_Reuss': 134.0, 'K_VRH': 134.0, 'K_Voigt': 134.0, 'K_Voigt_Reuss_Hill': 134.0, 'elastic_anisotropy': 0.0, 'elastic_tensor': [[245.0, 79.0, 79.0, 0.0, 0.0, 0.0], [79.0, 245.0, 79.0, 0.0, 0.0, 0.0], [79.0, 79.0, 245.0, 0.0, 0.0, 0.0], [0.0, 0.0, 0.0, 82.0, 0.0, 0.0], [0.0, 0.0, 0.0, 0.0, 82.0, 0.0], [0.0, 0.0, 0.0, 0.0, 0.0, 82.0]], 'homogeneous_poisson': 0.24, 'poisson_ratio': 0.24, 'universal_anisotropy': 0.0, 'elastic_tensor_original': [[245.0102770222381, 78.92166256473543, 78.92166256473543, 0.0, 0.0, 0.0], [78.93431733163317, 245.0060717375787, 78.93431733163317, 0.0, 0.0, 0.0], [78.93432661615408, 78.93432661615408, 245.00615040199173, 0.0, 0.0, 0.0], [-0.0044182328708143245, -1.0514983782426865, 1.0469006569896218, 82.3252281653021, 0.0, 0.0], [1.5628051575945552, -0.013313015295002808, -1.5766417546989222, 0.0, 82.3354909747658, 0.0], [-2.050000558107964e-06, -1.2666670118670883e-06, -8.576669003723147e-06, 0.0, 0.0, 82.32264300959757]], 'compliance_tensor': [[4.8, -1.2, -1.2, -0.0, 0.0, -0.0], [-1.2, 4.8, -1.2, -0.0, 0.0, 0.0], [-1.2, -1.2, 4.8, 0.0, -0.0, 0.0], [-0.0, -0.0, 0.0, 12.1, -0.0, -0.0], [0.0, 0.0, -0.0, -0.0, 12.1, -0.0], [-0.0, 0.0, 0.0, -0.0, -0.0, 12.1]], 'warnings': [], 'nsites': 28}",0,83,134,0,0.24,205.84
71,mp-753781,EuHfO3,"{'Eu': 1.0, 'Hf': 1.0, 'O': 3.0}",0.494254569,8.894546506,"{'G_Reuss': 103.0, 'G_VRH': 107.0, 'G_Voigt': 110.0, 'G_Voigt_Reuss_Hill': 107.0, 'K_Reuss': 205.0, 'K_VRH': 205.0, 'K_Voigt': 205.0, 'K_Voigt_Reuss_Hill': 205.0, 'elastic_anisotropy': 0.32, 'elastic_tensor': [[398.0, 109.0, 109.0, 0.0, 0.0, 0.0], [109.0, 398.0, 109.0, 0.0, 0.0, 0.0], [109.0, 109.0, 398.0, 0.0, 0.0, 0.0], [0.0, 0.0, 0.0, 87.0, 0.0, 0.0], [0.0, 0.0, 0.0, 0.0, 87.0, 0.0], [0.0, 0.0, 0.0, 0.0, 0.0, 87.0]], 'homogeneous_poisson': 0.28, 'poisson_ratio': 0.28, 'universal_anisotropy': 0.32, 'elastic_tensor_original': [[397.4434723948246, 108.72391828755816, 109.46649298782472, 0.1770729623229678, 0.07847989020343862, 0.054834441215432926], [108.82975925804415, 397.31348674985185, 109.45224968772004, 0.1778514085259135, 0.07848156818932342, 0.055124334793739405], [108.83875820244663, 108.71929089094455, 398.02644389484044, 0.17862986385185484, 0.07837186675317336, 0.05316051660391478], [-0.052770793938384915, 0.27351869403201556, -0.24713722253461307, 86.78455055648968, -0.02096327374031708, 0.019914292144214085], [0.010963955945259, -0.06888083464214363, 0.06479903966780609, 0.07321146708752913, 86.76002385339808, 0.004127917744890138], [0.7810408701098981, -0.8799821624276606, 0.1216937870730962, 0.03249276420551508, 0.04918568137691046, 86.75372900652638]], 'compliance_tensor': [[2.9, -0.6, -0.6, 0.0, -0.0, -0.0], [-0.6, 2.9, -0.6, -0.0, 0.0, -0.0], [-0.6, -0.6, 2.9, -0.0, -0.0, 0.0], [0.0, -0.0, -0.0, 11.5, -0.0, -0.0], [-0.0, 0.0, -0.0, -0.0, 11.5, -0.0], [-0.0, -0.0, 0.0, -0.0, -0.0, 11.5]], 'warnings': ['Contains a rare earth element'], 'nsites': 5}",0,107,205,0.32,0.28,273.92
72,mp-755352,Li2HfO3,"{'Li': 2.0, 'Hf': 1.0, 'O': 3.0}",0.552683592,6.52332648,"{'G_Reuss': 61.0, 'G_VRH': 68.0, 'G_Voigt': 76.0, 'G_Voigt_Reuss_Hill': 68.0, 'K_Reuss': 90.0, 'K_VRH': 106.0, 'K_Voigt': 122.0, 'K_Voigt_Reuss_Hill': 106.0, 'elastic_anisotropy': 1.61, 'elastic_tensor': [[214.0, 58.0, 47.0, 0.0, 40.0, 0.0], [58.0, 261.0, 85.0, 0.0, 6.0, 0.0], [47.0, 85.0, 243.0, 0.0, 64.0, 0.0], [0.0, 0.0, 0.0, 86.0, 0.0, -8.0], [40.0, 6.0, 64.0, 0.0, 61.0, 0.0], [0.0, 0.0, 0.0, -8.0, 0.0, 57.0]], 'homogeneous_poisson': 0.24, 'poisson_ratio': 0.24, 'universal_anisotropy': 1.61, 'elastic_tensor_original': [[260.95413220780284, 57.03872440851567, 84.37771847121812, 5.721040264957518, 0.0, 0.0], [59.712598687578414, 140.86943010670467, 50.27869525574791, -45.87714742331273, 0.0, 0.0], [86.22873113388175, 50.26517798728513, 308.924861326972, -16.60379094896014, 0.0, 0.0], [5.420693647717073, -46.668121096357204, -15.439536335973845, 64.15712738516798, 0.0, 0.0], [-0.00019353644400349368, -0.012018477417433258, -0.06675266403049811, -0.04828648191338033, 75.26155428527632, 14.859252639280566], [-0.03657371777286674, -0.09538974490838509, -0.04246619344583361, 0.033909788598038434, 17.101403896831645, 67.61495495782344]], 'compliance_tensor': [[5.7, -1.3, 0.4, 0.0, -4.1, 0.0], [-1.3, 4.8, -2.1, 0.0, 2.6, 0.0], [0.4, -2.1, 6.6, 0.0, -7.0, 0.0], [0.0, 0.0, 0.0, 11.9, 0.0, 1.8], [-4.1, 2.6, -7.0, 0.0, 26.2, 0.0], [0.0, 0.0, 0.0, 1.8, 0.0, 17.7]], 'warnings': [], 'nsites': 12}",0,68,106,1.61,0.24,168.64
73,mp-819,HfCr2,"{'Hf': 1.0, 'Cr': 2.0}",0.213503683,10.50798899,"{'G_Reuss': 68.0, 'G_VRH': 68.0, 'G_Voigt': 68.0, 'G_Voigt_Reuss_Hill': 68.0, 'K_Reuss': 191.0, 'K_VRH': 191.0, 'K_Voigt': 191.0, 'K_Voigt_Reuss_Hill': 191.0, 'elastic_anisotropy': 0.02, 'elastic_tensor': [[274.0, 149.0, 149.0, 0.0, 0.0, 0.0], [149.0, 274.0, 149.0, 0.0, 0.0, 0.0], [149.0, 149.0, 274.0, 0.0, 0.0, 0.0], [0.0, 0.0, 0.0, 72.0, 0.0, 0.0], [0.0, 0.0, 0.0, 0.0, 72.0, 0.0], [0.0, 0.0, 0.0, 0.0, 0.0, 72.0]], 'homogeneous_poisson': 0.34, 'poisson_ratio': 0.34, 'universal_anisotropy': 0.02, 'elastic_tensor_original': [[274.14181808046385, 148.69527651456366, 148.69527651456366, 0.0, 0.0, 0.0], [148.69721884714832, 274.14401503947715, 148.69721884714832, 0.0, 0.0, 0.0], [148.70207531334393, 148.70207531334393, 274.15328691721146, 0.0, 0.0, 0.0], [0.0001366767893573627, -0.00046029622283912114, 0.0004298801159668005, 72.06939572592943, 0.0, 0.0], [-0.0002168867568942079, 0.0007653128198052401, 0.0002927938628205738, 0.0, 72.0695491256822, 0.0], [7.663782144275498e-05, -0.001155402221862611, -0.0004117799257852461, 0.0, 0.0, 72.06947227696287]], 'compliance_tensor': [[5.9, -2.1, -2.1, 0.0, 0.0, -0.0], [-2.1, 5.9, -2.1, -0.0, 0.0, 0.0], [-2.1, -2.1, 5.9, 0.0, -0.0, 0.0], [0.0, -0.0, 0.0, 13.9, -0.0, -0.0], [0.0, 0.0, -0.0, -0.0, 13.9, -0.0], [-0.0, 0.0, 0.0, -0.0, -0.0, 13.9]], 'warnings': [], 'nsites': 6}",0,68,191,0.02,0.34,182.24
74,mp-861978,Hf2ReIr,"{'Hf': 2.0, 'Re': 1.0, 'Ir': 1.0}",0.121814061,17.42825204,"{'G_Reuss': 105.0, 'G_VRH': 105.0, 'G_Voigt': 106.0, 'G_Voigt_Reuss_Hill': 105.0, 'K_Reuss': 216.0, 'K_VRH': 216.0, 'K_Voigt': 216.0, 'K_Voigt_Reuss_Hill': 216.0, 'elastic_anisotropy': 0.03, 'elastic_tensor': [[370.0, 138.0, 138.0, 0.0, 0.0, 0.0], [138.0, 370.0, 138.0, 0.0, 0.0, 0.0], [138.0, 138.0, 370.0, 0.0, 0.0, 0.0], [0.0, 0.0, 0.0, 99.0, 0.0, 0.0], [0.0, 0.0, 0.0, 0.0, 99.0, 0.0], [0.0, 0.0, 0.0, 0.0, 0.0, 99.0]], 'homogeneous_poisson': 0.29, 'poisson_ratio': 0.29, 'universal_anisotropy': 0.03, 'elastic_tensor_original': [[370.9007246033598, 138.0592921789703, 138.05949269516395, 0.00030445339461880947, -0.0003003432236674196, -2.2194923137505566e-05], [138.26758882560023, 370.7626533424271, 138.26691380938394, -0.000692312559214554, 8.82372835030393e-05, -0.0008748717681985723], [138.57996858932984, 138.57996858932984, 369.8342736309523, 0.0, 0.0, 0.0], [0.000136920133953122, 0.0002777067131028415, 0.0002457701278984413, 98.74927381871267, 0.0, 0.0], [3.270678370385842e-05, 3.298686862411992e-05, 2.3840128513469715e-05, 0.0, 98.74955083578566, 0.0], [2.082346121108198e-05, -2.134995911916766e-05, -5.912995476901536e-05, 0.0, 0.0, 98.74949477901274]], 'compliance_tensor': [[3.4, -0.9, -0.9, -0.0, 0.0, -0.0], [-0.9, 3.4, -0.9, -0.0, -0.0, 0.0], [-0.9, -0.9, 3.4, 0.0, -0.0, -0.0], [-0.0, -0.0, 0.0, 10.1, -0.0, -0.0], [0.0, -0.0, -0.0, -0.0, 10.1, -0.0], [-0.0, 0.0, -0.0, -0.0, -0.0, 10.1]], 'warnings': [], 'nsites': 4}",0,105,216,0.03,0.29,270.9
75,mp-864647,Hf2N,"{'Hf': 2.0, 'N': 1.0}",0.133054712,13.23693341,"{'G_Reuss': 209.0, 'G_VRH': 141.0, 'G_Voigt': 73.0, 'G_Voigt_Reuss_Hill': 141.0, 'K_Reuss': 195.0, 'K_VRH': 195.0, 'K_Voigt': 195.0, 'K_Voigt_Reuss_Hill': 195.0, 'elastic_anisotropy': -3.24, 'elastic_tensor': [[399.0, 107.0, 107.0, 0.0, 0.0, 0.0], [107.0, 58.0, 405.0, 0.0, 0.0, 0.0], [107.0, 405.0, 58.0, 0.0, 0.0, 0.0], [0.0, 0.0, 0.0, 125.0, 0.0, 0.0], [0.0, 0.0, 0.0, 0.0, 138.0, 0.0], [0.0, 0.0, 0.0, 0.0, 0.0, 138.0]], 'homogeneous_poisson': 0.21, 'poisson_ratio': 0.21, 'universal_anisotropy': -3.24, 'elastic_tensor_original': [[58.44235482202137, 405.2759729822592, 107.66233712851896, 0.0, 0.0, 0.0], [405.55590224542726, 58.30768808526217, 107.72468252732675, 0.0, 0.0, 0.0], [106.94758475516245, 106.94758475516245, 399.34352222132935, 0.0, 0.0, 0.0], [-3.6543337527252925e-05, -4.5526669435565444e-05, -9.906706828388239e-06, 138.14471072881472, 0.0, 0.0], [-3.585993399637253e-05, -3.5933018229524386e-06, 1.1050002630241752e-05, 0.0, 138.14476757554837, 0.0], [2.2049987594413e-05, 7.536614870337119e-06, 1.2216662347367692e-05, 0.0, 0.0, 124.90529959360612]], 'compliance_tensor': [[2.9, -0.7, -0.7, 0.0, -0.0, -0.0], [-0.7, -0.2, 2.7, 0.0, 0.0, 0.0], [-0.7, 2.7, -0.2, -0.0, -0.0, 0.0], [0.0, 0.0, -0.0, 8.0, -0.0, -0.0], [0.0, 0.0, -0.0, -0.0, 7.2, -0.0], [-0.0, 0.0, 0.0, -0.0, 0.0, 7.2]], 'warnings': ['Elastic tensor has a negative eigenvalue', 'c11 and c23 are within 5% or c23 is greater than c11'], 'nsites': 6}",0,141,195,-3.24,0.21,341.22
76,mp-864916,Hf2TcRh,"{'Hf': 2.0, 'Tc': 1.0, 'Rh': 1.0}",0.123471984,13.32236044,"{'G_Reuss': 86.0, 'G_VRH': 89.0, 'G_Voigt': 91.0, 'G_Voigt_Reuss_Hill': 89.0, 'K_Reuss': 190.0, 'K_VRH': 190.0, 'K_Voigt': 190.0, 'K_Voigt_Reuss_Hill': 190.0, 'elastic_anisotropy': 0.24, 'elastic_tensor': [[344.0, 114.0, 114.0, 0.0, 0.0, 0.0], [114.0, 344.0, 114.0, 0.0, 0.0, 0.0], [114.0, 114.0, 344.0, 0.0, 0.0, 0.0], [0.0, 0.0, 0.0, 74.0, 0.0, 0.0], [0.0, 0.0, 0.0, 0.0, 74.0, 0.0], [0.0, 0.0, 0.0, 0.0, 0.0, 74.0]], 'homogeneous_poisson': 0.3, 'poisson_ratio': 0.3, 'universal_anisotropy': 0.24, 'elastic_tensor_original': [[342.3220775290368, 113.71355109226518, 113.71355109226518, 0.0, 0.0, 0.0], [113.54344923014739, 345.0414390466881, 113.54344923014739, 0.0, 0.0, 0.0], [113.54364157575898, 113.54364157575898, 345.04260849974906, 0.0, 0.0, 0.0], [5.6933518538545325e-05, 7.31601846752254e-05, 5.8326858360913906e-05, 74.09187787040848, 0.0, 0.0], [-0.0003445233931891516, -0.0003668901186760815, -0.00038548341432119573, 0.0, 74.09182256031556, 0.0], [0.00010359035393843787, 0.0001122503285222299, -7.166459163515348e-06, 0.0, 0.0, 74.09182422689148]], 'compliance_tensor': [[3.5, -0.9, -0.9, -0.0, 0.0, -0.0], [-0.9, 3.5, -0.9, -0.0, 0.0, 0.0], [-0.9, -0.9, 3.5, 0.0, -0.0, -0.0], [-0.0, -0.0, 0.0, 13.5, -0.0, -0.0], [0.0, 0.0, -0.0, -0.0, 13.5, 0.0], [-0.0, 0.0, -0.0, -0.0, 0.0, 13.5]], 'warnings': [], 'nsites': 4}",0,89,190,0.24,0.3,231.4
77,mp-865066,HfInRh2,"{'Hf': 1.0, 'In': 1.0, 'Rh': 2.0}",0.138892101,12.09739527,"{'G_Reuss': 283.0, 'G_VRH': 145.0, 'G_Voigt': 8.0, 'G_Voigt_Reuss_Hill': 145.0, 'K_Reuss': 174.0, 'K_VRH': 174.0, 'K_Voigt': 174.0, 'K_Voigt_Reuss_Hill': 174.0, 'elastic_anisotropy': -4.87, 'elastic_tensor': [[38.0, 242.0, 242.0, 0.0, 0.0, 0.0], [242.0, 38.0, 242.0, 0.0, 0.0, 0.0], [242.0, 242.0, 38.0, 0.0, 0.0, 0.0], [0.0, 0.0, 0.0, 80.0, 0.0, 0.0], [0.0, 0.0, 0.0, 0.0, 80.0, 0.0], [0.0, 0.0, 0.0, 0.0, 0.0, 80.0]], 'homogeneous_poisson': 0.17, 'poisson_ratio': 0.17, 'universal_anisotropy': -4.87, 'elastic_tensor_original': [[38.595277138180684, 241.71011949420082, 241.71011949420082, 0.0, 0.0, 0.0], [242.04631364773675, 38.17130225793504, 242.04631364773675, 0.0, 0.0, 0.0], [241.75015668245612, 241.75015668245612, 38.54002441779778, 0.0, 0.0, 0.0], [0.0005701502856324878, 0.0006347136513136414, 0.0009561104789898864, 80.34722940216054, 0.0, 0.0], [-0.000591543629680246, -0.0011769439229548009, -0.0007292370319981497, 0.0, 80.34738498223847, 0.0], [0.000930250466037365, 0.0006579636629581641, 0.0007896537289334975, 0.0, 0.0, 80.34768717905656]], 'compliance_tensor': [[-2.6, 2.3, 2.3, 0.0, -0.0, -0.0], [2.3, -2.6, 2.3, -0.0, 0.0, -0.0], [2.3, 2.3, -2.6, -0.0, -0.0, 0.0], [0.0, -0.0, -0.0, 12.4, 0.0, 0.0], [-0.0, 0.0, -0.0, 0.0, 12.4, 0.0], [-0.0, -0.0, 0.0, 0.0, 0.0, 12.4]], 'warnings': ['Elastic tensor has a negative eigenvalue', 'c11 and c12 are within 5% or c12 is greater than c11', 'c11 and c13 are within 5% or c13 is greater than c11', 'c11 and c23 are within 5% or c23 is greater than c11'], 'nsites': 4}",0,145,174,-4.87,0.17,339.3
78,mp-865166,HfPd5,"{'Hf': 1.0, 'Pd': 5.0}",0.158829978,12.27719935,"{'G_Reuss': 67.0, 'G_VRH': 70.0, 'G_Voigt': 73.0, 'G_Voigt_Reuss_Hill': 70.0, 'K_Reuss': 169.0, 'K_VRH': 169.0, 'K_Voigt': 169.0, 'K_Voigt_Reuss_Hill': 169.0, 'elastic_anisotropy': 0.5, 'elastic_tensor': [[236.0, 140.0, 134.0, 0.0, 0.0, 0.0], [140.0, 228.0, 137.0, 0.0, 0.0, 0.0], [134.0, 137.0, 236.0, 0.0, 0.0, 0.0], [0.0, 0.0, 0.0, 91.0, 0.0, 0.0], [0.0, 0.0, 0.0, 0.0, 86.0, 0.0], [0.0, 0.0, 0.0, 0.0, 0.0, 92.0]], 'homogeneous_poisson': 0.32, 'poisson_ratio': 0.32, 'universal_anisotropy': 0.5, 'elastic_tensor_original': [[235.54596104318517, 140.47772346677993, 134.53162320843052, 0.0, 0.0, 0.0], [140.26898244906295, 227.9263765413169, 137.24511424249445, 0.0, 0.0, 0.0], [133.0754060331537, 136.68630058410804, 236.41891828516071, 0.0, 0.0, 0.0], [-4.06400037615128e-05, -4.81099948572263e-05, -2.5313330446926488e-05, 91.18182445519612, 0.0, 0.0], [3.1963317980888384e-05, 3.48566499231228e-05, 3.1679984785249095e-05, 0.0, 86.31598602504187, 0.0], [-0.00010330660799249953, -0.0001471999164019129, -0.00014377325168272794, 0.0, 0.0, 91.82404076525907]], 'compliance_tensor': [[7.5, -3.2, -2.4, 0.0, 0.0, 0.0], [-3.2, 8.1, -2.9, 0.0, 0.0, 0.0], [-2.4, -2.9, 7.3, 0.0, 0.0, -0.0], [0.0, 0.0, 0.0, 11.0, 0.0, 0.0], [0.0, 0.0, 0.0, 0.0, 11.6, 0.0], [0.0, 0.0, -0.0, 0.0, 0.0, 10.9]], 'warnings': [], 'nsites': 6}",0,70,169,0.5,0.32,184.8