,mp_id,Formula,Composition,IPF,Density,Elastic_Tensor,E_above_Hull,G_VRH,K_VRH,Elastic_Anisotropy,poisson_ratio,Y_Modulus
131,mp-864835,Hf2CoIr,"{'Hf': 2.0, 'Co': 1.0, 'Ir': 1.0}",0.134267617,15.20009107,"{'G_Reuss': 33.0, 'G_VRH': 40.0, 'G_Voigt': 46.0, 'G_Voigt_Reuss_Hill': 40.0, 'K_Reuss': 190.0, 'K_VRH': 190.0, 'K_Voigt': 190.0, 'K_Voigt_Reuss_Hill': 190.0, 'elastic_anisotropy': 1.96, 'elastic_tensor': [[216.0, 177.0, 177.0, 0.0, 0.0, 0.0], [177.0, 216.0, 177.0, 0.0, 0.0, 0.0], [177.0, 177.0, 216.0, 0.0, 0.0, 0.0], [0.0, 0.0, 0.0, 64.0, 0.0, 0.0], [0.0, 0.0, 0.0, 0.0, 64.0, 0.0], [0.0, 0.0, 0.0, 0.0, 0.0, 64.0]], 'homogeneous_poisson': 0.4, 'poisson_ratio': 0.4, 'universal_anisotropy': 1.96, 'elastic_tensor_original': [[216.87432327766516, 177.8841265705965, 177.8837787166501, 1.3441119568465452e-05, 1.0621802409635046e-05, -3.206228461438047e-05], [178.3610671264242, 215.80828924019096, 178.36090041326827, -3.849709212728786e-06, 1.471648156734643e-05, 2.5443105585404576e-05], [175.71722579985075, 175.7174279244042, 214.16751418013288, 6.79141281485243e-05, 2.1025508642329004e-07, 3.123310226113353e-05], [-0.007381999999987195, -0.00532250421926379, -0.007975232342946725, 64.90756005472784, 0.0, 0.0], [6.247271475315197, 5.311932855297924, 4.647858177216739, 0.0, 61.73017458183333, 0.0], [-0.1570344321754028, -0.048147931193045945, -0.09721262284157203, 0.0, 0.0, 65.02163837136601]], 'compliance_tensor': [[18.0, -8.1, -8.1, 0.0, -0.0, -0.0], [-8.1, 18.0, -8.1, -0.0, 0.0, -0.0], [-8.1, -8.1, 18.0, -0.0, -0.0, 0.0], [0.0, -0.0, -0.0, 15.7, -0.0, -0.0], [-0.0, 0.0, -0.0, -0.0, 15.7, -0.0], [-0.0, -0.0, 0.0, -0.0, -0.0, 15.7]], 'warnings': [], 'nsites': 4}",0,40,190,1.96,0.4,112
132,mp-865001,HfScOs2,"{'Hf': 1.0, 'Sc': 1.0, 'Os': 2.0}",0.118430811,14.79074753,"{'G_Reuss': 93.0, 'G_VRH': 93.0, 'G_Voigt': 93.0, 'G_Voigt_Reuss_Hill': 93.0, 'K_Reuss': 201.0, 'K_VRH': 201.0, 'K_Voigt': 201.0, 'K_Voigt_Reuss_Hill': 201.0, 'elastic_anisotropy': 0.0, 'elastic_tensor': [[329.0, 137.0, 137.0, 0.0, 0.0, 0.0], [137.0, 329.0, 137.0, 0.0, 0.0, 0.0], [137.0, 137.0, 329.0, 0.0, 0.0, 0.0], [0.0, 0.0, 0.0, 91.0, 0.0, 0.0], [0.0, 0.0, 0.0, 0.0, 91.0, 0.0], [0.0, 0.0, 0.0, 0.0, 0.0, 91.0]], 'homogeneous_poisson': 0.3, 'poisson_ratio': 0.3, 'universal_anisotropy': 0.0, 'elastic_tensor_original': [[329.1119525494784, 137.46023905796542, 137.46023905796542, 0.0, 0.0, 0.0], [137.45895964557448, 329.0931717307736, 137.45895964557448, 0.0, 0.0, 0.0], [137.38658915378528, 137.38658915378528, 328.99293174553065, 0.0, 0.0, 0.0], [0.0012758210089197602, 0.00033576686165927907, 0.0006367337869312474, 91.39070711158068, 0.0, 0.0], [-0.0001428701434407475, -0.000852140784145089, -0.0014398046316441968, 0.0, 91.39840078830359, 0.0], [-0.0007386803391373313, -0.0007194803118295155, -0.000697743642918588, 0.0, 0.0, 91.40297192899942]], 'compliance_tensor': [[4.0, -1.2, -1.2, 0.0, -0.0, -0.0], [-1.2, 4.0, -1.2, -0.0, 0.0, -0.0], [-1.2, -1.2, 4.0, -0.0, -0.0, 0.0], [0.0, -0.0, -0.0, 10.9, 0.0, 0.0], [-0.0, 0.0, -0.0, 0.0, 10.9, 0.0], [-0.0, -0.0, 0.0, 0.0, 0.0, 10.9]], 'warnings': [], 'nsites': 4}",0,93,201,0,0.3,241.8
133,mp-865010,HfGaRu2,"{'Hf': 1.0, 'Ga': 1.0, 'Ru': 2.0}",0.110116871,12.05564688,"{'G_Reuss': 75.0, 'G_VRH': 76.0, 'G_Voigt': 76.0, 'G_Voigt_Reuss_Hill': 76.0, 'K_Reuss': 196.0, 'K_VRH': 196.0, 'K_Voigt': 196.0, 'K_Voigt_Reuss_Hill': 196.0, 'elastic_anisotropy': 0.06, 'elastic_tensor': [[284.0, 152.0, 152.0, 0.0, 0.0, 0.0], [152.0, 284.0, 152.0, 0.0, 0.0, 0.0], [152.0, 152.0, 284.0, 0.0, 0.0, 0.0], [0.0, 0.0, 0.0, 83.0, 0.0, 0.0], [0.0, 0.0, 0.0, 0.0, 83.0, 0.0], [0.0, 0.0, 0.0, 0.0, 0.0, 83.0]], 'homogeneous_poisson': 0.33, 'poisson_ratio': 0.33, 'universal_anisotropy': 0.06, 'elastic_tensor_original': [[283.9347030883143, 152.08417520139378, 152.08417520139378, 0.0, 0.0, 0.0], [151.09152650288453, 282.92355635001775, 151.0922677371547, -4.102151249057623e-05, -2.736772460881552e-05, 2.9934075341363785e-05], [152.07748797844465, 152.07748797844465, 283.9282722889764, 0.0, 0.0, 0.0], [-0.011878171904249802, -0.012562934578711174, -0.011853045261758803, 82.8387019065791, 0.0, 0.0], [-8.490991830077895e-05, -0.0001035365670449908, -0.00010004990373295549, 0.0, 82.84084397451802, 0.0], [-0.00031477636379251565, -0.0003606429863258922, -0.0003472363325605199, 0.0, 0.0, 82.84063955138137]], 'compliance_tensor': [[5.6, -2.0, -2.0, 0.0, 0.0, -0.0], [-2.0, 5.6, -2.0, -0.0, 0.0, 0.0], [-2.0, -2.0, 5.6, 0.0, -0.0, 0.0], [0.0, -0.0, 0.0, 12.1, 0.0, 0.0], [0.0, 0.0, -0.0, 0.0, 12.1, 0.0], [-0.0, 0.0, 0.0, 0.0, 0.0, 12.1]], 'warnings': [], 'nsites': 4}",0,76,196,0.06,0.33,202.16
134,mp-865023,HfTc2Sb,"{'Hf': 1.0, 'Tc': 2.0, 'Sb': 1.0}",0.122657901,12.05383818,"{'G_Reuss': 91.0, 'G_VRH': 92.0, 'G_Voigt': 92.0, 'G_Voigt_Reuss_Hill': 92.0, 'K_Reuss': 204.0, 'K_VRH': 204.0, 'K_Voigt': 204.0, 'K_Voigt_Reuss_Hill': 204.0, 'elastic_anisotropy': 0.09, 'elastic_tensor': [[307.0, 152.0, 152.0, 0.0, 0.0, 0.0], [152.0, 307.0, 152.0, 0.0, 0.0, 0.0], [152.0, 152.0, 307.0, 0.0, 0.0, 0.0], [0.0, 0.0, 0.0, 102.0, 0.0, 0.0], [0.0, 0.0, 0.0, 0.0, 102.0, 0.0], [0.0, 0.0, 0.0, 0.0, 0.0, 102.0]], 'homogeneous_poisson': 0.3, 'poisson_ratio': 0.3, 'universal_anisotropy': 0.09, 'elastic_tensor_original': [[307.13733367961254, 152.2713192117309, 152.2713192117309, 0.0, 0.0, 0.0], [152.27144199674163, 307.1374336262864, 152.27144199674163, 0.0, 0.0, 0.0], [152.2712006632108, 152.2712006632108, 307.1372418724554, 0.0, 0.0, 0.0], [0.0, 0.0, 0.0, 102.34319212014684, 0.0, 0.0], [0.0, 0.0, 0.0, 0.0, 102.34319212014684, 0.0], [0.0, 0.0, 0.0, 0.0, 0.0, 102.3431918368133]], 'compliance_tensor': [[4.8, -1.6, -1.6, 0.0, 0.0, 0.0], [-1.6, 4.8, -1.6, 0.0, 0.0, 0.0], [-1.6, -1.6, 4.8, 0.0, 0.0, 0.0], [0.0, 0.0, 0.0, 9.8, 0.0, 0.0], [0.0, 0.0, 0.0, 0.0, 9.8, 0.0], [0.0, 0.0, 0.0, 0.0, 0.0, 9.8]], 'warnings': [], 'nsites': 4}",0,92,204,0.09,0.3,239.2
135,mp-865049,HfMgPd2,"{'Hf': 1.0, 'Mg': 1.0, 'Pd': 2.0}",0.148758832,9.954600818,"{'G_Reuss': 35.0, 'G_VRH': 38.0, 'G_Voigt': 40.0, 'G_Voigt_Reuss_Hill': 38.0, 'K_Reuss': 127.0, 'K_VRH': 127.0, 'K_Voigt': 127.0, 'K_Voigt_Reuss_Hill': 127.0, 'elastic_anisotropy': 0.76, 'elastic_tensor': [[159.0, 112.0, 112.0, 0.0, 0.0, 0.0], [112.0, 159.0, 112.0, 0.0, 0.0, 0.0], [112.0, 112.0, 159.0, 0.0, 0.0, 0.0], [0.0, 0.0, 0.0, 52.0, 0.0, 0.0], [0.0, 0.0, 0.0, 0.0, 52.0, 0.0], [0.0, 0.0, 0.0, 0.0, 0.0, 52.0]], 'homogeneous_poisson': 0.37, 'poisson_ratio': 0.37, 'universal_anisotropy': 0.76, 'elastic_tensor_original': [[161.3582792413607, 113.21051672101584, 113.21051672101584, 0.0, 0.0, 0.0], [109.92277830464995, 158.53353568936532, 109.92277830464995, 0.0, 0.0, 0.0], [111.88202231447124, 111.88202231447124, 157.42054069357354, 0.0, 0.0, 0.0], [0.0003928802995465111, 0.00048076703322076257, 0.00044889034224924264, 51.62771147604001, 0.0, 0.0], [0.00030247356395009066, 0.0004723470268004182, 0.00035125693447705307, 0.0, 51.628755696836166, 0.0], [-0.00019247014674532507, -5.982337894460531e-05, 0.0003687302811335756, 0.0, 0.0, 51.627319752408006]], 'compliance_tensor': [[14.9, -6.2, -6.2, -0.0, 0.0, 0.0], [-6.2, 14.9, -6.2, -0.0, -0.0, 0.0], [-6.2, -6.2, 14.9, 0.0, 0.0, -0.0], [-0.0, -0.0, 0.0, 19.4, -0.0, -0.0], [0.0, -0.0, 0.0, -0.0, 19.4, -0.0], [0.0, 0.0, -0.0, -0.0, -0.0, 19.4]], 'warnings': [], 'nsites': 4}",0,38,127,0.76,0.37,104.12
136,mp-865091,HfMnRh2,"{'Hf': 1.0, 'Mn': 1.0, 'Rh': 2.0}",0.112840967,11.46597848,"{'G_Reuss': 65.0, 'G_VRH': 68.0, 'G_Voigt': 72.0, 'G_Voigt_Reuss_Hill': 68.0, 'K_Reuss': 177.0, 'K_VRH': 177.0, 'K_Voigt': 177.0, 'K_Voigt_Reuss_Hill': 177.0, 'elastic_anisotropy': 0.52, 'elastic_tensor': [[239.0, 146.0, 146.0, 0.0, 0.0, 0.0], [146.0, 239.0, 146.0, 0.0, 0.0, 0.0], [146.0, 146.0, 239.0, 0.0, 0.0, 0.0], [0.0, 0.0, 0.0, 89.0, 0.0, 0.0], [0.0, 0.0, 0.0, 0.0, 89.0, 0.0], [0.0, 0.0, 0.0, 0.0, 0.0, 89.0]], 'homogeneous_poisson': 0.33, 'poisson_ratio': 0.33, 'universal_anisotropy': 0.52, 'elastic_tensor_original': [[242.24355670653787, 148.65892574810817, 148.65892574810817, 0.0, 0.0, 0.0], [145.52521945778068, 238.4750663850921, 145.52521945778068, 0.0, 0.0, 0.0], [144.89867002964075, 144.89824457594852, 237.29163010891637, -7.940099856003918e-06, -2.006969963603e-05, 4.257329922792049e-05], [0.00031467960031453604, 0.000327939583471777, 0.0003362462395872395, 88.5583746717815, 0.0, 0.0], [0.004058548178409142, 0.0044402076936489124, 0.00407675815527906, 0.0, 88.55849642162686, 0.0], [-0.00016878311895248183, -0.00016268312670244934, -0.0002470163529205858, 0.0, 0.0, 88.55835404180766]], 'compliance_tensor': [[7.8, -3.0, -3.0, 0.0, 0.0, -0.0], [-3.0, 7.8, -3.0, 0.0, 0.0, 0.0], [-3.0, -3.0, 7.8, 0.0, 0.0, -0.0], [0.0, 0.0, 0.0, 11.3, 0.0, 0.0], [0.0, 0.0, 0.0, 0.0, 11.3, 0.0], [-0.0, 0.0, -0.0, 0.0, 0.0, 11.3]], 'warnings': [], 'nsites': 4}",0,68,177,0.52,0.33,180.88
137,mp-865094,HfNbTc2,"{'Hf': 1.0, 'Nb': 1.0, 'Tc': 2.0}",0.123276724,11.52785011,"{'G_Reuss': 89.0, 'G_VRH': 92.0, 'G_Voigt': 95.0, 'G_Voigt_Reuss_Hill': 92.0, 'K_Reuss': 216.0, 'K_VRH': 216.0, 'K_Voigt': 216.0, 'K_Voigt_Reuss_Hill': 216.0, 'elastic_anisotropy': 0.34, 'elastic_tensor': [[384.0, 132.0, 132.0, 0.0, 0.0, 0.0], [132.0, 384.0, 132.0, 0.0, 0.0, 0.0], [132.0, 132.0, 384.0, 0.0, 0.0, 0.0], [0.0, 0.0, 0.0, 74.0, 0.0, 0.0], [0.0, 0.0, 0.0, 0.0, 74.0, 0.0], [0.0, 0.0, 0.0, 0.0, 0.0, 74.0]], 'homogeneous_poisson': 0.31, 'poisson_ratio': 0.31, 'universal_anisotropy': 0.34, 'elastic_tensor_original': [[381.5989742578422, 133.06014111185274, 133.06014111185274, 0.0, 0.0, 0.0], [131.43290418594563, 384.4493105151875, 131.43290418594563, 0.0, 0.0, 0.0], [131.43794508359852, 131.43794508359852, 384.45489471571636, 0.0, 0.0, 0.0], [0.0005674067398904808, 0.0005921734097531359, 0.0005864434090128056, 74.41657788661128, 0.0, 0.0], [-0.0004310367222915006, -0.00044847005787443785, -0.0004238767213664117, 0.0, 74.41663067995142, 0.0], [6.777334207946693e-05, 5.3906673624305196e-05, 5.328000687875621e-05, 0.0, 0.0, 74.41655266994138]], 'compliance_tensor': [[3.2, -0.8, -0.8, 0.0, -0.0, 0.0], [-0.8, 3.2, -0.8, 0.0, 0.0, -0.0], [-0.8, -0.8, 3.2, -0.0, 0.0, 0.0], [0.0, 0.0, -0.0, 13.4, -0.0, -0.0], [-0.0, -0.0, 0.0, -0.0, 13.4, -0.0], [0.0, -0.0, 0.0, -0.0, -0.0, 13.4]], 'warnings': [], 'nsites': 4}",0,92,216,0.34,0.31,241.04
138,mp-865163,HfBeRh2,"{'Hf': 1.0, 'Be': 1.0, 'Rh': 2.0}",0.119066742,11.27534987,"{'G_Reuss': 66.0, 'G_VRH': 66.0, 'G_Voigt': 67.0, 'G_Voigt_Reuss_Hill': 66.0, 'K_Reuss': 213.0, 'K_VRH': 213.0, 'K_Voigt': 213.0, 'K_Voigt_Reuss_Hill': 213.0, 'elastic_anisotropy': 0.08, 'elastic_tensor': [[316.0, 162.0, 162.0, 0.0, 0.0, 0.0], [162.0, 316.0, 162.0, 0.0, 0.0, 0.0], [162.0, 162.0, 316.0, 0.0, 0.0, 0.0], [0.0, 0.0, 0.0, 60.0, 0.0, 0.0], [0.0, 0.0, 0.0, 0.0, 60.0, 0.0], [0.0, 0.0, 0.0, 0.0, 0.0, 60.0]], 'homogeneous_poisson': 0.36, 'poisson_ratio': 0.36, 'universal_anisotropy': 0.08, 'elastic_tensor_original': [[315.7310792122325, 161.9096960707383, 161.9096960707383, 0.0, 0.0, 0.0], [161.9096960707383, 315.7310792122325, 161.9096960707383, 0.0, 0.0, 0.0], [161.9096960707383, 161.9096960707383, 315.7310792122325, 0.0, 0.0, 0.0], [0.0, 0.0, 0.0, 59.71498320883303, 0.038673931230215564, 0.0], [0.0, 0.0, 0.0, -0.03867393123021627, 59.71498320883303, 0.0], [0.0, 0.0, 0.0, 0.0, -0.03866673126163403, 59.71498940880597]], 'compliance_tensor': [[4.9, -1.6, -1.6, 0.0, -0.0, 0.0], [-1.6, 4.9, -1.6, -0.0, 0.0, -0.0], [-1.6, -1.6, 4.9, -0.0, -0.0, 0.0], [0.0, -0.0, -0.0, 16.7, -0.0, -0.0], [-0.0, 0.0, -0.0, -0.0, 16.7, -0.0], [0.0, -0.0, 0.0, -0.0, -0.0, 16.7]], 'warnings': [], 'nsites': 4}",0,66,213,0.08,0.36,179.52
139,mp-865165,HfScCo2,"{'Hf': 1.0, 'Sc': 1.0, 'Co': 2.0}",0.149066807,9.108180341,"{'G_Reuss': 65.0, 'G_VRH': 65.0, 'G_Voigt': 66.0, 'G_Voigt_Reuss_Hill': 65.0, 'K_Reuss': 130.0, 'K_VRH': 130.0, 'K_Voigt': 130.0, 'K_Voigt_Reuss_Hill': 130.0, 'elastic_anisotropy': 0.11, 'elastic_tensor': [[234.0, 78.0, 78.0, 0.0, 0.0, 0.0], [78.0, 234.0, 78.0, 0.0, 0.0, 0.0], [78.0, 78.0, 234.0, 0.0, 0.0, 0.0], [0.0, 0.0, 0.0, 58.0, 0.0, 0.0], [0.0, 0.0, 0.0, 0.0, 58.0, 0.0], [0.0, 0.0, 0.0, 0.0, 0.0, 58.0]], 'homogeneous_poisson': 0.29, 'poisson_ratio': 0.29, 'universal_anisotropy': 0.11, 'elastic_tensor_original': [[237.22696237739896, 76.36723469781882, 76.36723469781882, 0.0, 0.0, 0.0], [74.91329179022361, 232.78901112610072, 74.91299368915054, 6.676597883864532e-06, -1.686191837936958e-05, 9.623924877642565e-06], [83.9612721847652, 83.9612721847652, 232.4516930532727, 0.0, 0.0, 0.0], [0.003541311767671764, 0.0035073450840499695, 0.003363351678841058, 57.94123330845186, 0.0, 0.0], [0.03467546397517504, 0.03447676387599241, 0.03330065995559823, 0.0, 57.94173955870453, 0.0], [0.01825706577981313, 0.018237765770178903, 0.018221672428812757, 0.0, 0.0, 57.942099198884044]], 'compliance_tensor': [[5.1, -1.3, -1.3, -0.0, 0.0, 0.0], [-1.3, 5.1, -1.3, 0.0, -0.0, 0.0], [-1.3, -1.3, 5.1, 0.0, -0.0, -0.0], [-0.0, 0.0, 0.0, 17.3, -0.0, 0.0], [0.0, -0.0, -0.0, -0.0, 17.3, 0.0], [0.0, 0.0, -0.0, 0.0, 0.0, 17.3]], 'warnings': [], 'nsites': 4}",0,65,130,0.11,0.29,167.7
140,mp-865174,HfCdRh2,"{'Hf': 1.0, 'Cd': 1.0, 'Rh': 2.0}",0.169546858,12.20158825,"{'G_Reuss': 54.0, 'G_VRH': 58.0, 'G_Voigt': 62.0, 'G_Voigt_Reuss_Hill': 58.0, 'K_Reuss': 163.0, 'K_VRH': 163.0, 'K_Voigt': 163.0, 'K_Voigt_Reuss_Hill': 163.0, 'elastic_anisotropy': 0.81, 'elastic_tensor': [[211.0, 139.0, 139.0, 0.0, 0.0, 0.0], [139.0, 211.0, 139.0, 0.0, 0.0, 0.0], [139.0, 139.0, 211.0, 0.0, 0.0, 0.0], [0.0, 0.0, 0.0, 80.0, 0.0, 0.0], [0.0, 0.0, 0.0, 0.0, 80.0, 0.0], [0.0, 0.0, 0.0, 0.0, 0.0, 80.0]], 'homogeneous_poisson': 0.34, 'poisson_ratio': 0.34, 'universal_anisotropy': 0.81, 'elastic_tensor_original': [[211.6901576079235, 139.67066699365634, 139.69297114670914, 0.30920557653625247, 0.014327841364939005, 0.09931670038489245], [139.2337556273368, 211.16721542869317, 139.235409665884, 0.03688125951369009, -0.8297423370537599, 0.09810608635153496], [139.46168216915711, 139.44961376112389, 211.42528074195764, -0.0014169336801323953, 0.02720658042950898, -0.5698822898120864], [0.02732426311836428, 0.028445646456177674, 0.029979872791431265, 80.16275188550388, -0.2368343280493835, -0.04886534599582534], [-0.027729692822865182, -0.02735880727249206, -0.029248530836181594, 0.14933374162779606, 80.11902290134323, -0.04961060524154154], [0.0005081564445745184, 0.00048069330892074123, 2.669975551183086e-06, 0.0005551484936824566, 0.19292780393709977, 80.14134480123789]], 'compliance_tensor': [[9.9, -4.0, -4.0, -0.0, -0.0, -0.0], [-4.0, 9.9, -4.0, 0.0, 0.0, -0.0], [-4.0, -4.0, 9.9, 0.0, -0.0, 0.0], [-0.0, 0.0, 0.0, 12.5, -0.0, -0.0], [-0.0, 0.0, -0.0, -0.0, 12.5, 0.0], [-0.0, -0.0, 0.0, -0.0, 0.0, 12.5]], 'warnings': [], 'nsites': 4}",0,58,163,0.81,0.34,155.44
141,mp-865179,Hf2FeOs,"{'Hf': 2.0, 'Fe': 1.0, 'Os': 1.0}",0.13636326,15.14416051,"{'G_Reuss': 93.0, 'G_VRH': 94.0, 'G_Voigt': 96.0, 'G_Voigt_Reuss_Hill': 94.0, 'K_Reuss': 196.0, 'K_VRH': 196.0, 'K_Voigt': 196.0, 'K_Voigt_Reuss_Hill': 196.0, 'elastic_anisotropy': 0.15, 'elastic_tensor': [[351.0, 118.0, 118.0, 0.0, 0.0, 0.0], [118.0, 351.0, 118.0, 0.0, 0.0, 0.0], [118.0, 118.0, 351.0, 0.0, 0.0, 0.0], [0.0, 0.0, 0.0, 82.0, 0.0, 0.0], [0.0, 0.0, 0.0, 0.0, 82.0, 0.0], [0.0, 0.0, 0.0, 0.0, 0.0, 82.0]], 'homogeneous_poisson': 0.29, 'poisson_ratio': 0.29, 'universal_anisotropy': 0.15, 'elastic_tensor_original': [[354.3331926142815, 117.42272853537789, 117.42078379487793, -0.00011500506729874919, 9.619845064494397e-05, 2.3778941739246262e-05], [118.81163974172827, 349.1155414012031, 118.81163974172827, 0.0, 0.0, 0.0], [118.54241980721237, 118.54241980721237, 348.83509366984225, 0.0, 0.0, 0.0], [-0.0011348110586461009, -0.0010781177450685244, -0.001078027713758055, 82.15571093033442, 0.0, 0.0], [-0.001530285922869673, -0.0016243426250502483, -0.0015282625127126738, 0.0, 82.15557063035708, 0.0], [-0.0005202078463340911, -0.00048511112043845265, -0.00044201449311388215, 0.0, 0.0, 82.15550970032955]], 'compliance_tensor': [[3.4, -0.9, -0.9, -0.0, -0.0, 0.0], [-0.9, 3.4, -0.9, 0.0, -0.0, -0.0], [-0.9, -0.9, 3.4, -0.0, 0.0, -0.0], [-0.0, 0.0, -0.0, 12.2, -0.0, -0.0], [-0.0, -0.0, 0.0, -0.0, 12.2, -0.0], [0.0, -0.0, -0.0, -0.0, -0.0, 12.2]], 'warnings': [], 'nsites': 4}",0,94,196,0.15,0.29,242.52
142,mp-865209,TmHfOs2,"{'Tm': 1.0, 'Hf': 1.0, 'Os': 2.0}",0.147330263,16.7589061,"{'G_Reuss': 87.0, 'G_VRH': 87.0, 'G_Voigt': 88.0, 'G_Voigt_Reuss_Hill': 87.0, 'K_Reuss': 185.0, 'K_VRH': 185.0, 'K_Voigt': 185.0, 'K_Voigt_Reuss_Hill': 185.0, 'elastic_anisotropy': 0.04, 'elastic_tensor': [[314.0, 120.0, 120.0, 0.0, 0.0, 0.0], [120.0, 314.0, 120.0, 0.0, 0.0, 0.0], [120.0, 120.0, 314.0, 0.0, 0.0, 0.0], [0.0, 0.0, 0.0, 82.0, 0.0, 0.0], [0.0, 0.0, 0.0, 0.0, 82.0, 0.0], [0.0, 0.0, 0.0, 0.0, 0.0, 82.0]], 'homogeneous_poisson': 0.3, 'poisson_ratio': 0.3, 'universal_anisotropy': 0.04, 'elastic_tensor_original': [[314.2174746915272, 120.43885897849407, 120.43885897849407, 0.0, 0.0, 0.0], [120.20809744988912, 313.9805377391784, 120.20809744988912, 0.0, 0.0, 0.0], [120.20621156907643, 120.20621156907643, 313.98137124090925, 0.0, 0.0, 0.0], [0.0008354710679188044, 0.0010730047048707325, 0.0008288577261307724, 81.64735086337203, 0.0, 0.0], [-0.0005209573325645343, -0.0011143714244119458, -0.001126438106503155, 0.0, 81.64742948013917, 0.0], [-0.0007083742387923068, 2.53833657791462e-05, -0.000756187633240584, 0.0, 0.0, 81.64806284428208]], 'compliance_tensor': [[4.0, -1.1, -1.1, -0.0, 0.0, -0.0], [-1.1, 4.0, -1.1, -0.0, -0.0, 0.0], [-1.1, -1.1, 4.0, 0.0, -0.0, -0.0], [-0.0, -0.0, 0.0, 12.2, -0.0, -0.0], [0.0, -0.0, -0.0, -0.0, 12.2, -0.0], [-0.0, 0.0, -0.0, -0.0, -0.0, 12.2]], 'warnings': ['Contains a rare earth element'], 'nsites': 4}",0,87,185,0.04,0.3,226.2
143,mp-865785,YbHfIr2,"{'Yb': 1.0, 'Hf': 1.0, 'Ir': 2.0}",0.162264873,17.00923078,"{'G_Reuss': 43.0, 'G_VRH': 46.0, 'G_Voigt': 50.0, 'G_Voigt_Reuss_Hill': 46.0, 'K_Reuss': 159.0, 'K_VRH': 159.0, 'K_Voigt': 159.0, 'K_Voigt_Reuss_Hill': 159.0, 'elastic_anisotropy': 0.84, 'elastic_tensor': [[197.0, 140.0, 140.0, 0.0, 0.0, 0.0], [140.0, 197.0, 140.0, 0.0, 0.0, 0.0], [140.0, 140.0, 197.0, 0.0, 0.0, 0.0], [0.0, 0.0, 0.0, 64.0, 0.0, 0.0], [0.0, 0.0, 0.0, 0.0, 64.0, 0.0], [0.0, 0.0, 0.0, 0.0, 0.0, 64.0]], 'homogeneous_poisson': 0.37, 'poisson_ratio': 0.37, 'universal_anisotropy': 0.84, 'elastic_tensor_original': [[196.67058668631324, 139.96827543942854, 139.96827543942854, 0.0, 0.0, 0.0], [139.96827543942854, 196.67058668631324, 139.96827543942854, 0.0, 0.0, 0.0], [139.96827543942854, 139.96827543942854, 196.67058668631324, 0.0, 0.0, 0.0], [0.0, 0.0, 0.0, 63.898561993421765, 0.0, 0.0], [0.0, 0.0, 0.0, 0.0, 63.898561993421765, 0.0], [0.0, 0.0, 0.0, 0.0, 0.0, 63.898561993421765]], 'compliance_tensor': [[12.5, -5.2, -5.2, 0.0, -0.0, -0.0], [-5.2, 12.5, -5.2, -0.0, 0.0, 0.0], [-5.2, -5.2, 12.5, -0.0, -0.0, 0.0], [0.0, -0.0, -0.0, 15.6, 0.0, -0.0], [-0.0, 0.0, -0.0, 0.0, 15.6, -0.0], [-0.0, 0.0, 0.0, -0.0, -0.0, 15.6]], 'warnings': ['Contains a rare earth element'], 'nsites': 4}",0,46,159,0.84,0.37,126.04