,mp_id,Formula,Composition,IPF,Density,Elastic_Tensor,E_above_Hull,G_VRH,K_VRH,Elastic_Anisotropy,poisson_ratio,Y_Modulus
209,mp-865138,Hf2MnIr,"{'Hf': 2.0, 'Mn': 1.0, 'Ir': 1.0}",0.121798887,14.97080708,"{'G_Reuss': 85.0, 'G_VRH': 87.0, 'G_Voigt': 89.0, 'G_Voigt_Reuss_Hill': 87.0, 'K_Reuss': 196.0, 'K_VRH': 196.0, 'K_Voigt': 196.0, 'K_Voigt_Reuss_Hill': 196.0, 'elastic_anisotropy': 0.22, 'elastic_tensor': [[345.0, 122.0, 122.0, 0.0, 0.0, 0.0], [122.0, 345.0, 122.0, 0.0, 0.0, 0.0], [122.0, 122.0, 345.0, 0.0, 0.0, 0.0], [0.0, 0.0, 0.0, 73.0, 0.0, 0.0], [0.0, 0.0, 0.0, 0.0, 73.0, 0.0], [0.0, 0.0, 0.0, 0.0, 0.0, 73.0]], 'homogeneous_poisson': 0.31, 'poisson_ratio': 0.31, 'universal_anisotropy': 0.22, 'elastic_tensor_original': [[345.08332605867844, 122.19927275122271, 122.19927275122271, 0.0, 0.0, 0.0], [122.21082530052318, 345.0953440861198, 122.21086325872861, 0.0, 0.0, 0.0], [121.61290745725127, 121.61294521585684, 346.11076812531155, 0.0, 0.0, 0.0], [0.029182071808982264, 0.03114278187342045, 0.030215812580035997, 73.36242242717017, 0.0, 0.0], [-0.028709970874296754, -0.026777025152895602, -0.027764119273640954, 0.0, 73.36233752865103, 0.0], [-0.027988366085819828, -0.027117881941170513, -0.026167257721847803, 0.0, 0.0, 73.36232985208143]], 'compliance_tensor': [[3.5, -0.9, -0.9, 0.0, -0.0, 0.0], [-0.9, 3.5, -0.9, -0.0, -0.0, 0.0], [-0.9, -0.9, 3.5, -0.0, -0.0, -0.0], [0.0, -0.0, -0.0, 13.6, 0.0, -0.0], [-0.0, -0.0, -0.0, 0.0, 13.6, -0.0], [0.0, 0.0, -0.0, -0.0, -0.0, 13.6]], 'warnings': [], 'nsites': 4}",0,87,196,0.22,0.31,227.94
210,mp-865215,TmHfRu2,"{'Tm': 1.0, 'Hf': 1.0, 'Ru': 2.0}",0.146681721,12.75865623,"{'G_Reuss': 70.0, 'G_VRH': 73.0, 'G_Voigt': 76.0, 'G_Voigt_Reuss_Hill': 73.0, 'K_Reuss': 157.0, 'K_VRH': 157.0, 'K_Voigt': 157.0, 'K_Voigt_Reuss_Hill': 157.0, 'elastic_anisotropy': 0.43, 'elastic_tensor': [[295.0, 87.0, 87.0, 0.0, 0.0, 0.0], [87.0, 295.0, 87.0, 0.0, 0.0, 0.0], [87.0, 87.0, 295.0, 0.0, 0.0, 0.0], [0.0, 0.0, 0.0, 58.0, 0.0, 0.0], [0.0, 0.0, 0.0, 0.0, 58.0, 0.0], [0.0, 0.0, 0.0, 0.0, 0.0, 58.0]], 'homogeneous_poisson': 0.3, 'poisson_ratio': 0.3, 'universal_anisotropy': 0.43, 'elastic_tensor_original': [[295.6794471401182, 88.11092404072552, 88.11092404072552, 0.0, 0.0, 0.0], [88.11496405170405, 295.68005572208506, 88.11202906291342, 0.0008319116495009198, 0.0007013866124274842, 0.0006991410203918123], [85.50433505648586, 85.5040007439716, 294.54649853781524, 0.0005005665246659588, 0.0005018497201149143, 0.0006863892656178178], [-0.00014758669343389272, 0.0004796964602008554, 2.3520241650893894e-05, 57.8418007132184, 0.0, 0.0], [-0.00019551262913091062, 0.0002829437903684262, 9.130358354566663e-05, 0.0, 57.8424632859584, 0.0], [-8.32695291359211e-05, 0.0008180400471656461, 0.0008018298477380958, 0.0, 0.0, 57.84225656959268]], 'compliance_tensor': [[3.9, -0.9, -0.9, -0.0, -0.0, 0.0], [-0.9, 3.9, -0.9, 0.0, -0.0, -0.0], [-0.9, -0.9, 3.9, -0.0, 0.0, -0.0], [-0.0, 0.0, -0.0, 17.3, -0.0, -0.0], [-0.0, -0.0, 0.0, -0.0, 17.3, -0.0], [0.0, -0.0, -0.0, -0.0, -0.0, 17.3]], 'warnings': ['Contains a rare earth element'], 'nsites': 4}",0,73,157,0.43,0.3,189.8
211,mp-865846,LuHfRu2,"{'Lu': 1.0, 'Hf': 1.0, 'Ru': 2.0}",0.130019119,13.04803148,"{'G_Reuss': 73.0, 'G_VRH': 75.0, 'G_Voigt': 78.0, 'G_Voigt_Reuss_Hill': 75.0, 'K_Reuss': 163.0, 'K_VRH': 163.0, 'K_Voigt': 163.0, 'K_Voigt_Reuss_Hill': 163.0, 'elastic_anisotropy': 0.38, 'elastic_tensor': [[304.0, 93.0, 93.0, 0.0, 0.0, 0.0], [93.0, 304.0, 93.0, 0.0, 0.0, 0.0], [93.0, 93.0, 304.0, 0.0, 0.0, 0.0], [0.0, 0.0, 0.0, 60.0, 0.0, 0.0], [0.0, 0.0, 0.0, 0.0, 60.0, 0.0], [0.0, 0.0, 0.0, 0.0, 0.0, 60.0]], 'homogeneous_poisson': 0.3, 'poisson_ratio': 0.3, 'universal_anisotropy': 0.38, 'elastic_tensor_original': [[304.0079728966299, 94.11573695863113, 94.11573695863113, 0.0, 0.0, 0.0], [91.35728175528446, 302.8983592597505, 91.35728175528446, 0.0, 0.0, 0.0], [94.12330000330994, 94.12330000330994, 304.00794908167404, 0.0, 0.0, 0.0], [0.0005455433205935011, 0.0004970866550581557, 0.00020357666191272693, 60.254361202759846, 0.0, 0.0], [0.0005135833213400599, 0.0001428733299974428, 0.0007738633152601151, 0.0, 60.254381936092706, 0.0], [0.0009808499770924896, 0.0012706166369919494, 0.0021123399506662224, 0.0, 0.0, 60.25453945275569]], 'compliance_tensor': [[3.8, -0.9, -0.9, -0.0, 0.0, -0.0], [-0.9, 3.8, -0.9, -0.0, -0.0, 0.0], [-0.9, -0.9, 3.8, -0.0, -0.0, -0.0], [-0.0, -0.0, -0.0, 16.6, -0.0, -0.0], [0.0, -0.0, -0.0, -0.0, 16.6, -0.0], [-0.0, 0.0, -0.0, -0.0, -0.0, 16.6]], 'warnings': ['Contains a rare earth element'], 'nsites': 4}",0,75,163,0.38,0.3,195
212,mp-866088,Hf2CoTc,"{'Hf': 2.0, 'Co': 1.0, 'Tc': 1.0}",0.132068113,12.87493177,"{'G_Reuss': 80.0, 'G_VRH': 82.0, 'G_Voigt': 83.0, 'G_Voigt_Reuss_Hill': 82.0, 'K_Reuss': 170.0, 'K_VRH': 170.0, 'K_Voigt': 170.0, 'K_Voigt_Reuss_Hill': 170.0, 'elastic_anisotropy': 0.22, 'elastic_tensor': [[311.0, 100.0, 100.0, 0.0, 0.0, 0.0], [100.0, 311.0, 100.0, 0.0, 0.0, 0.0], [100.0, 100.0, 311.0, 0.0, 0.0, 0.0], [0.0, 0.0, 0.0, 69.0, 0.0, 0.0], [0.0, 0.0, 0.0, 0.0, 69.0, 0.0], [0.0, 0.0, 0.0, 0.0, 0.0, 69.0]], 'homogeneous_poisson': 0.29, 'poisson_ratio': 0.29, 'universal_anisotropy': 0.22, 'elastic_tensor_original': [[306.1866764531665, 95.10499894244555, 95.10350756673884, -9.383252187895294e-05, 4.146274684736639e-05, 3.4946599494661325e-05], [104.29971928560556, 315.3652954445416, 104.2996454827181, 7.739178086597403e-06, -7.919625244056926e-06, 1.9287796164006993e-05], [99.96630769984324, 99.96662967772117, 310.3676493053439, -1.0044891765246888e-05, -3.2079494659471095e-06, -1.4696418490870195e-05], [0.010780606616028178, 0.009504697190474563, 0.013599713149847472, 68.71508943952057, 0.0, 0.0], [-0.307770432045221, -0.31978255048476695, -0.2775731077182175, 0.0, 68.75552567856124, 0.0], [0.04699880431285515, 0.04917956413934864, 0.03299202963429483, 0.0, 0.0, 68.6928414756747]], 'compliance_tensor': [[3.8, -0.9, -0.9, -0.0, -0.0, 0.0], [-0.9, 3.8, -0.9, 0.0, -0.0, -0.0], [-0.9, -0.9, 3.8, -0.0, 0.0, -0.0], [-0.0, 0.0, -0.0, 14.6, -0.0, -0.0], [-0.0, -0.0, 0.0, -0.0, 14.6, -0.0], [0.0, -0.0, -0.0, -0.0, -0.0, 14.6]], 'warnings': [], 'nsites': 4}",0,82,170,0.22,0.29,211.56
213,mp-866117,HfZnAu2,"{'Hf': 1.0, 'Zn': 1.0, 'Au': 2.0}",0.218506325,14.75026669,"{'G_Reuss': 7.0, 'G_VRH': 17.0, 'G_Voigt': 28.0, 'G_Voigt_Reuss_Hill': 17.0, 'K_Reuss': 137.0, 'K_VRH': 137.0, 'K_Voigt': 137.0, 'K_Voigt_Reuss_Hill': 137.0, 'elastic_anisotropy': 16.17, 'elastic_tensor': [[141.0, 135.0, 135.0, 0.0, 0.0, 0.0], [135.0, 141.0, 135.0, 0.0, 0.0, 0.0], [135.0, 135.0, 141.0, 0.0, 0.0, 0.0], [0.0, 0.0, 0.0, 44.0, 0.0, 0.0], [0.0, 0.0, 0.0, 0.0, 44.0, 0.0], [0.0, 0.0, 0.0, 0.0, 0.0, 44.0]], 'homogeneous_poisson': 0.44, 'poisson_ratio': 0.44, 'universal_anisotropy': 16.17, 'elastic_tensor_original': [[142.23965487188565, 136.33683449500253, 136.33683449500253, 0.0, 0.0, 0.0], [135.21033607820357, 142.23496538263805, 135.21033607820357, 0.0, 0.0, 0.0], [134.29103116761425, 134.29103116761425, 138.52468447723058, 0.0, 0.0, 0.0], [-0.04852781527499364, -0.04983029910019083, -0.047619637570271156, 44.067726077828105, 0.0, 0.0], [0.06114426658382516, 0.025919897069410777, 0.03783606195458078, 0.0, 44.11225353553805, 0.0], [0.06789926363840994, 0.06679007631145353, 0.06914791080021845, 0.0, 0.0, 44.06883734210097]], 'compliance_tensor': [[117.4, -57.5, -57.5, -0.0, 0.0, -0.0], [-57.5, 117.4, -57.5, -0.0, -0.0, 0.0], [-57.5, -57.5, 117.4, 0.0, -0.0, -0.0], [-0.0, -0.0, 0.0, 22.7, -0.0, -0.0], [0.0, -0.0, -0.0, -0.0, 22.7, -0.0], [-0.0, 0.0, -0.0, -0.0, -0.0, 22.7]], 'warnings': ['c11 and c12 are within 5% or c12 is greater than c11', 'c11 and c13 are within 5% or c13 is greater than c11', 'c11 and c23 are within 5% or c23 is greater than c11'], 'nsites': 4}",0,17,137,16.17,0.44,48.96
214,mp-867148,LiHfRh2,"{'Li': 1.0, 'Hf': 1.0, 'Rh': 2.0}",0.149378906,10.67610969,"{'G_Reuss': 57.0, 'G_VRH': 57.0, 'G_Voigt': 57.0, 'G_Voigt_Reuss_Hill': 57.0, 'K_Reuss': 152.0, 'K_VRH': 152.0, 'K_Voigt': 152.0, 'K_Voigt_Reuss_Hill': 152.0, 'elastic_anisotropy': 0.0, 'elastic_tensor': [[227.0, 114.0, 114.0, 0.0, 0.0, 0.0], [114.0, 227.0, 114.0, 0.0, 0.0, 0.0], [114.0, 114.0, 227.0, 0.0, 0.0, 0.0], [0.0, 0.0, 0.0, 58.0, 0.0, 0.0], [0.0, 0.0, 0.0, 0.0, 58.0, 0.0], [0.0, 0.0, 0.0, 0.0, 0.0, 58.0]], 'homogeneous_poisson': 0.33, 'poisson_ratio': 0.33, 'universal_anisotropy': 0.0, 'elastic_tensor_original': [[229.37667019142316, 114.98521395860509, 114.98521395860509, 0.0, 0.0, 0.0], [111.98080062096027, 222.96604542289532, 111.98080062096027, 0.0, 0.0, 0.0], [114.97476731163029, 114.97476731163029, 229.36679092758774, 0.0, 0.0, 0.0], [-0.000390220081634106, -0.0003346001143393952, -0.0002823167740519886, 57.98721368296188, 0.0, 0.0], [0.00012216301491194663, 0.00026258306810051307, 0.00011905306646749873, 0.0, 57.986935386315714, 0.0], [0.0002449267770534592, 0.00031385997406462176, 0.00046976010866435394, 0.0, 0.0, 57.98737941252993]], 'compliance_tensor': [[6.6, -2.2, -2.2, 0.0, -0.0, 0.0], [-2.2, 6.6, -2.2, 0.0, 0.0, -0.0], [-2.2, -2.2, 6.6, -0.0, 0.0, 0.0], [0.0, 0.0, -0.0, 17.2, -0.0, -0.0], [-0.0, 0.0, 0.0, -0.0, 17.2, -0.0], [0.0, -0.0, 0.0, -0.0, -0.0, 17.2]], 'warnings': [], 'nsites': 4}",0,57,152,0,0.33,151.62
215,mp-867327,Hf2TcRu,"{'Hf': 2.0, 'Tc': 1.0, 'Ru': 1.0}",0.117471968,13.45156018,"{'G_Reuss': 88.0, 'G_VRH': 91.0, 'G_Voigt': 94.0, 'G_Voigt_Reuss_Hill': 91.0, 'K_Reuss': 194.0, 'K_VRH': 194.0, 'K_Voigt': 194.0, 'K_Voigt_Reuss_Hill': 194.0, 'elastic_anisotropy': 0.33, 'elastic_tensor': [[360.0, 111.0, 111.0, 0.0, 0.0, 0.0], [111.0, 360.0, 111.0, 0.0, 0.0, 0.0], [111.0, 111.0, 360.0, 0.0, 0.0, 0.0], [0.0, 0.0, 0.0, 74.0, 0.0, 0.0], [0.0, 0.0, 0.0, 0.0, 74.0, 0.0], [0.0, 0.0, 0.0, 0.0, 0.0, 74.0]], 'homogeneous_poisson': 0.3, 'poisson_ratio': 0.3, 'universal_anisotropy': 0.33, 'elastic_tensor_original': [[359.8312493703853, 110.9247347949796, 110.9247347949796, 0.0, 0.0, 0.0], [111.30301090124519, 359.48867948829826, 111.30298805856553, -4.478761200045736e-05, 1.9431240128483504e-05, -2.6533418245259814e-06], [110.91217159159721, 110.91217159159721, 359.822564406017, 0.0, 0.0, 0.0], [-0.00024666312833039947, -0.0002500197922086602, -0.00025586312068481934, 73.76383237513072, 0.0, 0.0], [-0.00028198309897785215, -0.00028843976027619593, -0.0002846330967757708, 0.0, 73.76379304183007, 0.0], [-7.911660091264785e-05, -9.081659118898105e-05, -0.0001024632481751057, 0.0, 0.0, 73.76378168183953]], 'compliance_tensor': [[3.3, -0.8, -0.8, 0.0, 0.0, -0.0], [-0.8, 3.3, -0.8, -0.0, -0.0, 0.0], [-0.8, -0.8, 3.3, 0.0, -0.0, -0.0], [0.0, -0.0, 0.0, 13.6, -0.0, -0.0], [0.0, -0.0, -0.0, -0.0, 13.6, -0.0], [-0.0, 0.0, -0.0, -0.0, -0.0, 13.6]], 'warnings': [], 'nsites': 4}",0,91,194,0.33,0.3,236.6
216,mp-977407,Hf2ReRh,"{'Hf': 2.0, 'Re': 1.0, 'Rh': 1.0}",0.119739129,15.30780954,"{'G_Reuss': 92.0, 'G_VRH': 93.0, 'G_Voigt': 93.0, 'G_Voigt_Reuss_Hill': 93.0, 'K_Reuss': 150.0, 'K_VRH': 150.0, 'K_Voigt': 150.0, 'K_Voigt_Reuss_Hill': 150.0, 'elastic_anisotropy': 0.06, 'elastic_tensor': [[291.0, 80.0, 80.0, 0.0, 0.0, 0.0], [80.0, 291.0, 80.0, 0.0, 0.0, 0.0], [80.0, 80.0, 291.0, 0.0, 0.0, 0.0], [0.0, 0.0, 0.0, 85.0, 0.0, 0.0], [0.0, 0.0, 0.0, 0.0, 85.0, 0.0], [0.0, 0.0, 0.0, 0.0, 0.0, 85.0]], 'homogeneous_poisson': 0.24, 'poisson_ratio': 0.24, 'universal_anisotropy': 0.06, 'elastic_tensor_original': [[290.86340972749684, 79.8713532865788, 79.8713532865788, 0.039153885123898044, -0.024292280554951817, 0.024292280554951817], [79.8713532865788, 290.86340972749684, 79.8713532865788, -0.024292280554946276, -0.03915388512389565, -0.024293880533908838], [79.8713532865788, 79.8713532865788, 290.86340972749684, -0.02429388053390645, -0.02429388053390645, -0.039153885123898044], [0.0, 0.0, 0.0, 84.87683919664396, 0.0, 0.0], [0.0, 0.0, 0.0, 0.0, 84.87683919664396, 0.0], [0.0, 0.0, 0.0, 0.0, 0.0, 84.87683919664396]], 'compliance_tensor': [[3.9, -0.8, -0.8, 0.0, -0.0, 0.0], [-0.8, 3.9, -0.8, -0.0, 0.0, -0.0], [-0.8, -0.8, 3.9, -0.0, -0.0, 0.0], [0.0, -0.0, -0.0, 11.8, 0.0, -0.0], [-0.0, 0.0, -0.0, 0.0, 11.8, -0.0], [0.0, -0.0, 0.0, -0.0, -0.0, 11.8]], 'warnings': [], 'nsites': 4}",0,93,150,0.06,0.24,230.64
217,mp-983123,HfMgAu2,"{'Hf': 1.0, 'Mg': 1.0, 'Au': 2.0}",0.205879578,13.16185811,"{'G_Reuss': 23.0, 'G_VRH': 33.0, 'G_Voigt': 43.0, 'G_Voigt_Reuss_Hill': 33.0, 'K_Reuss': 110.0, 'K_VRH': 110.0, 'K_Voigt': 110.0, 'K_Voigt_Reuss_Hill': 110.0, 'elastic_anisotropy': 4.12, 'elastic_tensor': [[126.0, 102.0, 102.0, 0.0, 0.0, 0.0], [102.0, 126.0, 102.0, 0.0, 0.0, 0.0], [102.0, 102.0, 126.0, 0.0, 0.0, 0.0], [0.0, 0.0, 0.0, 63.0, 0.0, 0.0], [0.0, 0.0, 0.0, 0.0, 63.0, 0.0], [0.0, 0.0, 0.0, 0.0, 0.0, 63.0]], 'homogeneous_poisson': 0.36, 'poisson_ratio': 0.36, 'universal_anisotropy': 4.12, 'elastic_tensor_original': [[125.66865388429898, 101.67402292137488, 101.67402292137488, 0.0, 0.0, 0.0], [101.67402292137488, 125.66865388429898, 101.67402292137488, 0.0, 0.0, 0.0], [101.67402292137488, 101.67402292137488, 125.66865388429898, 0.0, 0.0, 0.0], [0.0, 0.0, 0.0, 62.92170207753232, 0.0, 0.0], [0.0, 0.0, 0.0, 0.0, 62.92170207753232, 0.0], [0.0, 0.0, 0.0, 0.0, 0.0, 62.92170207753232]], 'compliance_tensor': [[28.8, -12.9, -12.9, 0.0, -0.0, -0.0], [-12.9, 28.8, -12.9, -0.0, 0.0, 0.0], [-12.9, -12.9, 28.8, -0.0, -0.0, -0.0], [0.0, -0.0, -0.0, 15.9, 0.0, -0.0], [-0.0, 0.0, -0.0, 0.0, 15.9, -0.0], [-0.0, 0.0, 0.0, -0.0, -0.0, 15.9]], 'warnings': [], 'nsites': 4}",0,33,110,4.12,0.36,89.76