,mp_id,Formula,Composition,IPF,Density,Elastic_Tensor,E_above_Hull,G_VRH,K_VRH,Elastic_Anisotropy,poisson_ratio,Y_Modulus
118,mp-567220,Hf2SbP,"{'Hf': 2.0, 'Sb': 1.0, 'P': 1.0}",0.099311665,10.20499005,"{'G_Reuss': 64.0, 'G_VRH': 70.0, 'G_Voigt': 75.0, 'G_Voigt_Reuss_Hill': 70.0, 'K_Reuss': 123.0, 'K_VRH': 124.0, 'K_Voigt': 124.0, 'K_Voigt_Reuss_Hill': 124.0, 'elastic_anisotropy': 0.88, 'elastic_tensor': [[182.0, 79.0, 98.0, 0.0, 0.0, 0.0], [79.0, 182.0, 98.0, 0.0, 0.0, 0.0], [98.0, 98.0, 205.0, 0.0, 0.0, 0.0], [0.0, 0.0, 0.0, 113.0, 0.0, 0.0], [0.0, 0.0, 0.0, 0.0, 113.0, 0.0], [0.0, 0.0, 0.0, 0.0, 0.0, 52.0]], 'homogeneous_poisson': 0.26, 'poisson_ratio': 0.26, 'universal_anisotropy': 0.88, 'elastic_tensor_original': [[181.7911038391417, 80.29442837396249, 97.24479561869926, 0.0, 0.0, 0.0], [78.95737248976083, 182.30359220042575, 96.4695107943989, 0.0, 0.0, 0.0], [98.17117098018478, 98.17119203897614, 204.8410842372999, 0.0, 0.0, 0.0], [3.240665769781015e-05, 3.913202686180922e-06, -1.8283358627171875e-05, 112.69126489017926, 0.0, 0.0], [-7.029997859663597e-06, 3.9253321375291225e-05, -1.7603327971829837e-05, 0.0, 112.72968553532567, 0.0], [-5.9249983657822135e-05, -2.936665857487452e-06, -2.6356659397394956e-05, 0.0, 0.0, 51.83113412455736]], 'compliance_tensor': [[7.8, -1.9, -2.8, 0.0, 0.0, -0.0], [-1.9, 7.8, -2.8, -0.0, 0.0, -0.0], [-2.8, -2.8, 7.6, -0.0, -0.0, 0.0], [0.0, 0.0, -0.0, 8.9, -0.0, 0.0], [-0.0, -0.0, 0.0, -0.0, 8.9, -0.0], [-0.0, -0.0, 0.0, -0.0, 0.0, 19.4]], 'warnings': [], 'nsites': 8}",0,70,124,0.88,0.26,176.4
119,mp-570784,Hf2Al3C4,"{'Hf': 2.0, 'Al': 3.0, 'C': 4.0}",0.088639186,7.559589082,"{'G_Reuss': 156.0, 'G_VRH': 156.0, 'G_Voigt': 157.0, 'G_Voigt_Reuss_Hill': 156.0, 'K_Reuss': 196.0, 'K_VRH': 197.0, 'K_Voigt': 198.0, 'K_Voigt_Reuss_Hill': 197.0, 'elastic_anisotropy': 0.04, 'elastic_tensor': [[418.0, 118.0, 90.0, 0.0, 0.0, 0.0], [118.0, 418.0, 90.0, 0.0, 0.0, 0.0], [90.0, 90.0, 351.0, 0.0, 0.0, 0.0], [0.0, 0.0, 0.0, 169.0, 0.0, 0.0], [0.0, 0.0, 0.0, 0.0, 169.0, 0.0], [0.0, 0.0, 0.0, 0.0, 0.0, 150.0]], 'homogeneous_poisson': 0.19, 'poisson_ratio': 0.19, 'universal_anisotropy': 0.04, 'elastic_tensor_original': [[418.2269960994469, 117.3552558192546, 89.28210268284123, 0.0, 0.0, 2.027922177071269e-05], [117.14006904384104, 418.5861091224108, 89.82641106275622, 0.0, 0.0, 7.245494626036735e-05], [89.78628934546967, 89.78624898776049, 350.7264077307992, 0.0, 0.0, 1.5539199511024765e-05], [-0.009384191087398438, 0.013337516279278082, -0.0006464305655222697, 169.33509835162968, 2.9320017744238937e-05, 6.666678398448381e-09], [0.002267188591324867, -0.032554960071839716, -0.006540729685976331, -4.6666580971171824e-07, 169.30321327104642, 0.0], [-0.02861456236890796, 0.024531476422808125, 0.02801749718298204, 0.0, 0.0, 149.20883046429748]], 'compliance_tensor': [[2.7, -0.6, -0.5, -0.0, 0.0, -0.0], [-0.6, 2.7, -0.5, 0.0, -0.0, -0.0], [-0.5, -0.5, 3.1, -0.0, 0.0, 0.0], [0.0, -0.0, -0.0, 5.9, -0.0, -0.0], [0.0, -0.0, 0.0, -0.0, 5.9, -0.0], [-0.0, -0.0, 0.0, -0.0, -0.0, 6.7]], 'warnings': [], 'nsites': 18}",0,156,197,0.04,0.19,371.28
120,mp-571147,Hf(SiNi)2,"{'Hf': 1.0, 'Si': 2.0, 'Ni': 2.0}",0.106785765,8.567434555,"{'G_Reuss': 75.0, 'G_VRH': 76.0, 'G_Voigt': 78.0, 'G_Voigt_Reuss_Hill': 76.0, 'K_Reuss': 173.0, 'K_VRH': 174.0, 'K_Voigt': 174.0, 'K_Voigt_Reuss_Hill': 174.0, 'elastic_anisotropy': 0.22, 'elastic_tensor': [[246.0, 118.0, 142.0, 0.0, 0.0, 0.0], [118.0, 246.0, 142.0, 0.0, 0.0, 0.0], [142.0, 142.0, 272.0, 0.0, 0.0, 0.0], [0.0, 0.0, 0.0, 91.0, 0.0, 0.0], [0.0, 0.0, 0.0, 0.0, 91.0, 0.0], [0.0, 0.0, 0.0, 0.0, 0.0, 87.0]], 'homogeneous_poisson': 0.31, 'poisson_ratio': 0.31, 'universal_anisotropy': 0.22, 'elastic_tensor_original': [[246.22823817058088, 118.39061943827984, 141.04079930187814, 0.0, 0.0, 0.0], [118.39083775824632, 246.22813141481052, 141.0408730833941, 0.0, 0.0, 0.0], [142.7154514401649, 142.7154514401649, 272.09743603794726, 0.0, 0.0, 0.0], [0.0005233933124772842, -0.00010325205163327438, 0.0003331935815414977, 90.74651565008857, 0.0, 0.0], [0.002017894688248925, 0.001476861716230262, 0.0019403564680048131, 0.0, 90.74649696356815, 0.0], [0.0001191565798595889, 0.0001707833302993166, 0.00013812661276683388, 0.0, 0.0, 86.60986057619357]], 'compliance_tensor': [[6.2, -1.6, -2.4, 0.0, 0.0, 0.0], [-1.6, 6.2, -2.4, 0.0, -0.0, 0.0], [-2.4, -2.4, 6.2, -0.0, -0.0, -0.0], [0.0, 0.0, -0.0, 11.0, 0.0, 0.0], [0.0, -0.0, -0.0, 0.0, 11.0, 0.0], [0.0, 0.0, -0.0, 0.0, 0.0, 11.5]], 'warnings': [], 'nsites': 5}",0,76,174,0.22,0.31,199.12
121,mp-571619,HfAlPt,"{'Hf': 1.0, 'Al': 1.0, 'Pt': 1.0}",0.114273362,12.5719309,"{'G_Reuss': 73.0, 'G_VRH': 76.0, 'G_Voigt': 79.0, 'G_Voigt_Reuss_Hill': 76.0, 'K_Reuss': 163.0, 'K_VRH': 163.0, 'K_Voigt': 164.0, 'K_Voigt_Reuss_Hill': 163.0, 'elastic_anisotropy': 0.42, 'elastic_tensor': [[263.0, 107.0, 131.0, 0.0, 0.0, 0.0], [107.0, 263.0, 131.0, 0.0, 0.0, 0.0], [131.0, 131.0, 210.0, 0.0, 0.0, 0.0], [0.0, 0.0, 0.0, 96.0, 0.0, 0.0], [0.0, 0.0, 0.0, 0.0, 96.0, 0.0], [0.0, 0.0, 0.0, 0.0, 0.0, 78.0]], 'homogeneous_poisson': 0.3, 'poisson_ratio': 0.3, 'universal_anisotropy': 0.42, 'elastic_tensor_original': [[263.4498494353311, 106.7663521637976, 130.87163868626794, 0.0, 0.0, -1.110581674794487e-05], [107.2258748400278, 263.5616128865938, 130.49697216706286, 0.0, 0.0, -4.249728461669666e-05], [130.3923001946374, 130.3923254145635, 210.21153194768496, 0.0, 0.0, -2.1019963418944055e-05], [3.22465768587797e-05, 0.00013336322712302512, -7.151684221854692e-05, 95.99845286353971, -1.548666444413127e-05, 0.0], [-0.00033911368054524087, 3.225003302099153e-05, 0.00020146353960942816, 4.0000040955505436e-08, 95.98320638925098, 0.0], [-0.024989713543436546, 0.0021130010429119294, -0.006097871135454805, 0.0, 0.0, 77.5345364253166]], 'compliance_tensor': [[5.6, -0.8, -3.0, 0.0, 0.0, 0.0], [-0.8, 5.6, -3.0, -0.0, 0.0, 0.0], [-3.0, -3.0, 8.5, 0.0, -0.0, -0.0], [-0.0, -0.0, 0.0, 10.4, 0.0, -0.0], [0.0, 0.0, -0.0, 0.0, 10.4, -0.0], [0.0, 0.0, -0.0, 0.0, -0.0, 12.8]], 'warnings': [], 'nsites': 18}",0,76,163,0.42,0.3,197.6
122,mp-5918,Hf2NiP,"{'Hf': 2.0, 'Ni': 1.0, 'P': 1.0}",0.115857804,11.39762285,"{'G_Reuss': 92.0, 'G_VRH': 94.0, 'G_Voigt': 96.0, 'G_Voigt_Reuss_Hill': 94.0, 'K_Reuss': 166.0, 'K_VRH': 167.0, 'K_Voigt': 167.0, 'K_Voigt_Reuss_Hill': 167.0, 'elastic_anisotropy': 0.23, 'elastic_tensor': [[250.0, 123.0, 99.0, 0.0, 12.0, 0.0], [123.0, 278.0, 112.0, 0.0, -4.0, 0.0], [99.0, 112.0, 310.0, 0.0, 5.0, 0.0], [0.0, 0.0, 0.0, 105.0, 0.0, -10.0], [12.0, -4.0, 5.0, 0.0, 85.0, 0.0], [0.0, 0.0, 0.0, -10.0, 0.0, 119.0]], 'homogeneous_poisson': 0.26, 'poisson_ratio': 0.26, 'universal_anisotropy': 0.23, 'elastic_tensor_original': [[278.0476788699981, 113.76275462395719, 125.02863415060976, -4.057712456071152, 0.0, 0.0], [110.5649259369862, 310.4772357343948, 98.7827014386246, 5.993738334859765, 0.0, 0.0], [121.79716126151943, 98.48830619612602, 249.51326383972727, 12.650164435017045, 0.0, 0.0], [-3.395732801581906, 5.009413273750644, 12.152409712714814, 85.3401541498085, 0.0, 0.0], [-0.4061471261938916, -0.4130877350880626, -0.410108423312777, 0.006062467174438478, 119.13264867633589, -9.452036065047308], [-0.0037383155030510464, -0.0037798254835605654, -0.003868475517736171, 2.3026650112489873e-05, -9.636028398662372, 105.23927470356914]], 'compliance_tensor': [[5.4, -2.0, -1.0, 0.0, -0.8, 0.0], [-2.0, 5.0, -1.2, 0.0, 0.6, 0.0], [-1.0, -1.2, 4.0, 0.0, -0.2, 0.0], [0.0, 0.0, 0.0, 9.6, 0.0, 0.8], [-0.8, 0.6, -0.2, 0.0, 11.9, 0.0], [0.0, 0.0, 0.0, 0.8, 0.0, 8.5]], 'warnings': [], 'nsites': 8}",0,94,167,0.23,0.26,236.88
123,mp-600125,HfInCu2,"{'Hf': 1.0, 'In': 1.0, 'Cu': 2.0}",0.162341808,10.62059265,"{'G_Reuss': 43.0, 'G_VRH': 49.0, 'G_Voigt': 55.0, 'G_Voigt_Reuss_Hill': 49.0, 'K_Reuss': 123.0, 'K_VRH': 123.0, 'K_Voigt': 123.0, 'K_Voigt_Reuss_Hill': 123.0, 'elastic_anisotropy': 1.36, 'elastic_tensor': [[158.0, 105.0, 105.0, 0.0, 0.0, 0.0], [105.0, 158.0, 105.0, 0.0, 0.0, 0.0], [105.0, 105.0, 158.0, 0.0, 0.0, 0.0], [0.0, 0.0, 0.0, 73.0, 0.0, 0.0], [0.0, 0.0, 0.0, 0.0, 73.0, 0.0], [0.0, 0.0, 0.0, 0.0, 0.0, 73.0]], 'homogeneous_poisson': 0.32, 'poisson_ratio': 0.32, 'universal_anisotropy': 1.36, 'elastic_tensor_original': [[156.2475878387555, 103.28471592816834, 103.28471592816834, 0.0, 0.0, 0.0], [106.01954338759732, 158.77754979652343, 106.01954338759732, 0.0, 0.0, 0.0], [106.06026447582784, 106.06026447582784, 158.8182180514694, 0.0, 0.0, 0.0], [3.752699953385202e-05, 0.0004229307445789143, 0.0004037373904031679, 73.327535717568, 0.0, 0.0], [-0.00022532006498705013, -0.0002648700649104486, -0.0002260900658394703, 0.0, 73.32769461096626, 0.0], [0.0005286377399719201, 0.0005205710622640598, 0.00015044737573318171, 0.0, 0.0, 73.32790009432225]], 'compliance_tensor': [[13.5, -5.4, -5.4, 0.0, -0.0, 0.0], [-5.4, 13.5, -5.4, 0.0, 0.0, -0.0], [-5.4, -5.4, 13.5, -0.0, 0.0, 0.0], [0.0, 0.0, -0.0, 13.6, -0.0, -0.0], [-0.0, 0.0, 0.0, -0.0, 13.6, -0.0], [0.0, -0.0, 0.0, -0.0, -0.0, 13.6]], 'warnings': [], 'nsites': 4}",0,49,123,1.36,0.32,129.36
124,mp-753669,Hf(MnSn)6,"{'Hf': 1.0, 'Mn': 6.0, 'Sn': 6.0}",0.105043421,8.947031143,"{'G_Reuss': 69.0, 'G_VRH': 72.0, 'G_Voigt': 74.0, 'G_Voigt_Reuss_Hill': 72.0, 'K_Reuss': 113.0, 'K_VRH': 113.0, 'K_Voigt': 113.0, 'K_Voigt_Reuss_Hill': 113.0, 'elastic_anisotropy': 0.29, 'elastic_tensor': [[229.0, 65.0, 48.0, 0.0, 0.0, -0.0], [65.0, 228.0, 48.0, 0.0, 0.0, 0.0], [48.0, 48.0, 239.0, 0.0, 0.0, 0.0], [0.0, 0.0, 0.0, 54.0, -0.0, 0.0], [0.0, 0.0, 0.0, -0.0, 54.0, 0.0], [-0.0, 0.0, 0.0, 0.0, 0.0, 81.0]], 'homogeneous_poisson': 0.24, 'poisson_ratio': 0.24, 'universal_anisotropy': 0.29, 'elastic_tensor_original': [[229.31129011554276, 64.73175112936607, 47.120823956732174, 0.0, 0.0, 1.084554788645251e-05], [64.70577830310982, 228.46280008275357, 47.416999344490286, 0.0, 0.0, 4.889401623994794e-05], [48.36908471611154, 48.36906689926855, 238.80149842046723, 0.0, 0.0, 1.0358137717778265e-05], [7.339669699036123e-05, 0.0002502434367201125, -0.0011536604766244222, 54.06597376362427, 1.1560004775930566e-05, 0.0], [0.00036503977325791836, 0.0004819394807864914, 0.00041219353215279334, 1.599997744177951e-07, 53.90109517640416, 0.0], [-0.08712123532877293, -0.014470070287377915, 0.06386017545394698, 0.0, 0.0, 80.84487234122801]], 'compliance_tensor': [[4.9, -1.2, -0.7, 0.0, 0.0, 0.0], [-1.2, 4.9, -0.7, 0.0, 0.0, -0.0], [-0.7, -0.7, 4.5, 0.0, 0.0, 0.0], [0.0, 0.0, 0.0, 18.5, 0.0, 0.0], [0.0, 0.0, 0.0, 0.0, 18.5, 0.0], [0.0, -0.0, 0.0, 0.0, 0.0, 12.3]], 'warnings': [], 'nsites': 13}",0,72,113,0.29,0.24,178.56
125,mp-861875,LiHf2Re,"{'Li': 1.0, 'Hf': 2.0, 'Re': 1.0}",0.137202777,12.90312181,"{'G_Reuss': 48.0, 'G_VRH': 48.0, 'G_Voigt': 48.0, 'G_Voigt_Reuss_Hill': 48.0, 'K_Reuss': 136.0, 'K_VRH': 136.0, 'K_Voigt': 136.0, 'K_Voigt_Reuss_Hill': 136.0, 'elastic_anisotropy': 0.09, 'elastic_tensor': [[211.0, 98.0, 98.0, 0.0, 0.0, 0.0], [98.0, 211.0, 98.0, 0.0, 0.0, 0.0], [98.0, 98.0, 211.0, 0.0, 0.0, 0.0], [0.0, 0.0, 0.0, 43.0, 0.0, 0.0], [0.0, 0.0, 0.0, 0.0, 43.0, 0.0], [0.0, 0.0, 0.0, 0.0, 0.0, 43.0]], 'homogeneous_poisson': 0.34, 'poisson_ratio': 0.34, 'universal_anisotropy': 0.09, 'elastic_tensor_original': [[210.80633532375464, 98.43067053748247, 98.43067053748247, 0.0, 0.0, 0.0], [98.42627890305164, 210.80601105475657, 98.42627890305164, 0.0, 0.0, 0.0], [98.43252174653959, 98.43252174653959, 210.78816825638165, 0.0, 0.0, 0.0], [0.0002792131545957259, 0.00041514973424233806, 0.00047930635983833495, 43.06434232896912, 0.0, 0.0], [0.0007612361793602556, 0.0007936461586136685, 0.0006900895582387792, 0.0, 43.06609948117759, 0.0], [0.000829919468725964, 0.0008674127780582552, 0.0008369294642395295, 0.0, 0.0, 43.06562030481767]], 'compliance_tensor': [[6.8, -2.1, -2.1, 0.0, -0.0, -0.0], [-2.1, 6.8, -2.1, -0.0, 0.0, -0.0], [-2.1, -2.1, 6.8, -0.0, -0.0, 0.0], [0.0, -0.0, -0.0, 23.2, -0.0, -0.0], [-0.0, 0.0, -0.0, -0.0, 23.2, -0.0], [-0.0, -0.0, 0.0, -0.0, -0.0, 23.2]], 'warnings': [], 'nsites': 4}",0,48,136,0.09,0.34,128.64
126,mp-862610,LiHfIr2,"{'Li': 1.0, 'Hf': 1.0, 'Ir': 2.0}",0.152533683,15.39350045,"{'G_Reuss': 66.0, 'G_VRH': 67.0, 'G_Voigt': 67.0, 'G_Voigt_Reuss_Hill': 67.0, 'K_Reuss': 172.0, 'K_VRH': 172.0, 'K_Voigt': 172.0, 'K_Voigt_Reuss_Hill': 172.0, 'elastic_anisotropy': 0.09, 'elastic_tensor': [[248.0, 134.0, 134.0, 0.0, 0.0, 0.0], [134.0, 248.0, 134.0, 0.0, 0.0, 0.0], [134.0, 134.0, 248.0, 0.0, 0.0, 0.0], [0.0, 0.0, 0.0, 74.0, 0.0, 0.0], [0.0, 0.0, 0.0, 0.0, 74.0, 0.0], [0.0, 0.0, 0.0, 0.0, 0.0, 74.0]], 'homogeneous_poisson': 0.33, 'poisson_ratio': 0.33, 'universal_anisotropy': 0.09, 'elastic_tensor_original': [[247.875457502956, 134.00963188514547, 134.00963188514547, 0.0, 0.0, 0.0], [134.01257731633186, 247.87808140443036, 134.01257731633186, 0.0, 0.0, 0.0], [134.00872520895803, 134.00872520895803, 247.8747305365404, 0.0, 0.0, 0.0], [0.00024060655046915432, 0.00025310988773100666, 0.00024395987973538095, 74.26095756771137, 0.0, 0.0], [1.309298645553676e-05, 2.7959697958349236e-05, 1.3259676651750278e-05, 0.0, 74.26077148096498, 0.0], [-0.00011415663546670146, -0.00012583331035604054, -0.00011405996052762752, 0.0, 0.0, 74.26080622748636]], 'compliance_tensor': [[6.5, -2.3, -2.3, 0.0, -0.0, -0.0], [-2.3, 6.5, -2.3, -0.0, 0.0, -0.0], [-2.3, -2.3, 6.5, -0.0, -0.0, 0.0], [0.0, -0.0, -0.0, 13.5, -0.0, -0.0], [-0.0, 0.0, -0.0, -0.0, 13.5, -0.0], [-0.0, -0.0, 0.0, -0.0, -0.0, 13.5]], 'warnings': [], 'nsites': 4}",0,67,172,0.09,0.33,178.22
127,mp-864715,HfInCo2,"{'Hf': 1.0, 'In': 1.0, 'Co': 2.0}",0.164244393,11.38323869,"{'G_Reuss': 75.0, 'G_VRH': 76.0, 'G_Voigt': 78.0, 'G_Voigt_Reuss_Hill': 76.0, 'K_Reuss': 160.0, 'K_VRH': 160.0, 'K_Voigt': 160.0, 'K_Voigt_Reuss_Hill': 160.0, 'elastic_anisotropy': 0.19, 'elastic_tensor': [[240.0, 120.0, 120.0, 0.0, 0.0, 0.0], [120.0, 240.0, 120.0, 0.0, 0.0, 0.0], [120.0, 120.0, 240.0, 0.0, 0.0, 0.0], [0.0, 0.0, 0.0, 89.0, 0.0, 0.0], [0.0, 0.0, 0.0, 0.0, 89.0, 0.0], [0.0, 0.0, 0.0, 0.0, 0.0, 89.0]], 'homogeneous_poisson': 0.29, 'poisson_ratio': 0.29, 'universal_anisotropy': 0.19, 'elastic_tensor_original': [[239.57350298789424, 119.53517792457362, 119.53517792457362, 0.0, 0.0, 0.0], [119.54498299412286, 239.5828487607277, 119.54498299412286, 0.0, 0.0, 0.0], [119.53287913140878, 119.53287913140878, 239.57092802784135, 0.0, 0.0, 0.0], [0.25606460044095936, 0.2551037612523103, 0.25339064269889816, 89.23498348498791, 0.0, 0.0], [-4.699662698081736e-05, -0.00012412989518037113, -6.57166111740604e-05, 0.0, 89.24620839217606, 0.0], [9.923324955388056e-06, 2.9436641809873406e-05, 7.357660453829219e-05, 0.0, 0.0, 89.24623137215667]], 'compliance_tensor': [[6.3, -2.1, -2.1, 0.0, -0.0, 0.0], [-2.1, 6.3, -2.1, 0.0, 0.0, -0.0], [-2.1, -2.1, 6.3, -0.0, 0.0, 0.0], [0.0, 0.0, -0.0, 11.2, -0.0, -0.0], [-0.0, 0.0, 0.0, -0.0, 11.2, -0.0], [0.0, -0.0, 0.0, -0.0, -0.0, 11.2]], 'warnings': [], 'nsites': 4}",0,76,160,0.19,0.29,196.08
128,mp-864734,HfInPd2,"{'Hf': 1.0, 'In': 1.0, 'Pd': 2.0}",0.154999508,11.70613839,"{'G_Reuss': 18.0, 'G_VRH': 30.0, 'G_Voigt': 42.0, 'G_Voigt_Reuss_Hill': 30.0, 'K_Reuss': 145.0, 'K_VRH': 145.0, 'K_Voigt': 145.0, 'K_Voigt_Reuss_Hill': 145.0, 'elastic_anisotropy': 6.63, 'elastic_tensor': [[157.0, 139.0, 139.0, 0.0, 0.0, 0.0], [139.0, 157.0, 139.0, 0.0, 0.0, 0.0], [139.0, 139.0, 157.0, 0.0, 0.0, 0.0], [0.0, 0.0, 0.0, 64.0, 0.0, 0.0], [0.0, 0.0, 0.0, 0.0, 64.0, 0.0], [0.0, 0.0, 0.0, 0.0, 0.0, 64.0]], 'homogeneous_poisson': 0.4, 'poisson_ratio': 0.4, 'universal_anisotropy': 6.63, 'elastic_tensor_original': [[156.68826796202165, 139.057605615541, 139.05823631072155, -1.839377985869245e-05, -5.067266902503126e-06, -1.7476085852727322e-05], [140.31267070225002, 157.03013860829884, 140.31267070225002, 0.0, 0.0, 0.0], [139.0223523102616, 139.02167002471805, 156.65396448132006, -1.1171927029140753e-05, 4.22937237531757e-06, -2.717172252444589e-05], [0.012030356864538046, -0.007498908478907739, -0.0012469553051663133, 64.02374844171437, 0.0, 0.0], [0.012700869465765438, 0.025685671954849987, 0.009522846269054494, 0.0, 64.05585142666243, 0.0], [-3.180663193748153e-05, -3.325996368465298e-05, -5.7013271081021804e-05, 0.0, 0.0, 64.02640164881745]], 'compliance_tensor': [[39.2, -18.5, -18.5, -0.0, 0.0, 0.0], [-18.5, 39.2, -18.5, 0.0, -0.0, 0.0], [-18.5, -18.5, 39.2, 0.0, 0.0, -0.0], [-0.0, 0.0, 0.0, 15.6, -0.0, -0.0], [0.0, -0.0, 0.0, -0.0, 15.6, -0.0], [0.0, 0.0, -0.0, -0.0, -0.0, 15.6]], 'warnings': [], 'nsites': 4}",0,30,145,6.63,0.4,84
129,mp-864798,HfZnIr2,"{'Hf': 1.0, 'Zn': 1.0, 'Ir': 2.0}",0.145509032,16.54244346,"{'G_Reuss': 83.0, 'G_VRH': 87.0, 'G_Voigt': 92.0, 'G_Voigt_Reuss_Hill': 87.0, 'K_Reuss': 213.0, 'K_VRH': 213.0, 'K_Voigt': 213.0, 'K_Voigt_Reuss_Hill': 213.0, 'elastic_anisotropy': 0.56, 'elastic_tensor': [[291.0, 174.0, 174.0, 0.0, 0.0, 0.0], [174.0, 291.0, 174.0, 0.0, 0.0, 0.0], [174.0, 174.0, 291.0, 0.0, 0.0, 0.0], [0.0, 0.0, 0.0, 114.0, 0.0, 0.0], [0.0, 0.0, 0.0, 0.0, 114.0, 0.0], [0.0, 0.0, 0.0, 0.0, 0.0, 114.0]], 'homogeneous_poisson': 0.32, 'poisson_ratio': 0.32, 'universal_anisotropy': 0.56, 'elastic_tensor_original': [[292.158779015472, 172.79050682598222, 172.79098425274282, -3.746571894039504e-05, 6.934549469478871e-05, 5.629832739605688e-05], [173.84838541128872, 289.9008353510747, 173.84907516824106, 5.845289313212028e-05, -1.9351299091521052e-05, 2.8927199672892294e-05], [175.01292856065024, 175.0129614040355, 290.17924877749743, -4.744058657216818e-05, -2.1066972001770224e-05, -6.758986850567946e-05], [4.557013082725157e-05, 5.8646817492271624e-05, 8.052933979253897e-05, 114.24328471360515, 0.0, 0.0], [9.298241836492475e-05, 9.506906233623507e-05, 6.033605301187281e-05, 0.0, 114.24331964047536, 0.0], [-0.00015264395299375167, -0.00012267697777701477, -0.0001430963854164178, 0.0, 0.0, 114.24335520343554]], 'compliance_tensor': [[6.2, -2.3, -2.3, -0.0, -0.0, -0.0], [-2.3, 6.2, -2.3, 0.0, 0.0, -0.0], [-2.3, -2.3, 6.2, 0.0, -0.0, 0.0], [-0.0, 0.0, 0.0, 8.8, -0.0, -0.0], [-0.0, 0.0, -0.0, -0.0, 8.8, 0.0], [-0.0, -0.0, 0.0, -0.0, 0.0, 8.8]], 'warnings': [], 'nsites': 4}",0,87,213,0.56,0.32,229.68
130,mp-864807,HfZnNi2,"{'Hf': 1.0, 'Zn': 1.0, 'Ni': 2.0}",0.158155971,10.75546822,"{'G_Reuss': 46.0, 'G_VRH': 49.0, 'G_Voigt': 52.0, 'G_Voigt_Reuss_Hill': 49.0, 'K_Reuss': 151.0, 'K_VRH': 151.0, 'K_Voigt': 151.0, 'K_Voigt_Reuss_Hill': 151.0, 'elastic_anisotropy': 0.67, 'elastic_tensor': [[193.0, 129.0, 129.0, 0.0, 0.0, 0.0], [129.0, 193.0, 129.0, 0.0, 0.0, 0.0], [129.0, 129.0, 193.0, 0.0, 0.0, 0.0], [0.0, 0.0, 0.0, 66.0, 0.0, 0.0], [0.0, 0.0, 0.0, 0.0, 66.0, 0.0], [0.0, 0.0, 0.0, 0.0, 0.0, 66.0]], 'homogeneous_poisson': 0.35, 'poisson_ratio': 0.35, 'universal_anisotropy': 0.67, 'elastic_tensor_original': [[192.68780871104426, 129.43836134205912, 129.43836134205912, 0.0, 0.0, 0.0], [129.5101152854996, 192.75943033132805, 129.5101152854996, 0.0, 0.0, 0.0], [129.50194348011226, 129.50194348011226, 192.7509169015177, 0.0, 0.0, 0.0], [-0.0010703471529856408, -0.0010380504716464118, -0.0010808204910795719, 65.54228865300814, 0.0, 0.0], [0.0014096639738258485, 0.0014499739921420953, 0.0014121773083010161, 0.0, 65.54218210295971, 0.0], [0.0005819602644197699, 0.000587770267058294, 0.0005747769278226778, 0.0, 0.0, 65.54272001987081]], 'compliance_tensor': [[11.3, -4.5, -4.5, -0.0, -0.0, -0.0], [-4.5, 11.3, -4.5, 0.0, 0.0, -0.0], [-4.5, -4.5, 11.3, 0.0, -0.0, 0.0], [-0.0, 0.0, 0.0, 15.3, 0.0, 0.0], [-0.0, 0.0, -0.0, 0.0, 15.3, -0.0], [-0.0, -0.0, 0.0, 0.0, -0.0, 15.3]], 'warnings': [], 'nsites': 4}",0,49,151,0.67,0.35,132.3