,mp_id,Formula,Composition,IPF,Density,Elastic_Tensor,E_above_Hull,G_VRH,K_VRH,Elastic_Anisotropy,poisson_ratio,Y_Modulus
144,mp-866012,Hf2ZnRe,"{'Hf': 2.0, 'Zn': 1.0, 'Re': 1.0}",0.132438483,14.06711296,"{'G_Reuss': 54.0, 'G_VRH': 58.0, 'G_Voigt': 63.0, 'G_Voigt_Reuss_Hill': 58.0, 'K_Reuss': 160.0, 'K_VRH': 160.0, 'K_Voigt': 160.0, 'K_Voigt_Reuss_Hill': 160.0, 'elastic_anisotropy': 0.83, 'elastic_tensor': [[208.0, 136.0, 136.0, 0.0, 0.0, 0.0], [136.0, 208.0, 136.0, 0.0, 0.0, 0.0], [136.0, 136.0, 208.0, 0.0, 0.0, 0.0], [0.0, 0.0, 0.0, 81.0, 0.0, 0.0], [0.0, 0.0, 0.0, 0.0, 81.0, 0.0], [0.0, 0.0, 0.0, 0.0, 0.0, 81.0]], 'homogeneous_poisson': 0.34, 'poisson_ratio': 0.34, 'universal_anisotropy': 0.83, 'elastic_tensor_original': [[207.45138202206957, 135.84220729248324, 135.84220729248324, 0.0, 0.0, 0.0], [135.91575986686036, 209.46002458750445, 135.91575986686036, 0.0, 0.0, 0.0], [136.00119601362152, 136.00119601362152, 205.6324192446763, 0.0, 0.0, 0.0], [-0.001118385813837943, -0.0013707122880897607, -0.0013084856688762559, 80.53765980571201, 0.0, 0.0], [-0.0007469460970797045, -0.0006049595386838231, -0.0006119028667247257, 0.0, 80.53787263888304, 0.0], [-0.0016190320987326315, -0.00151063218139529, -0.0017582853258756108, 0.0, 0.0, 80.53707822615549]], 'compliance_tensor': [[10.0, -4.0, -4.0, 0.0, -0.0, 0.0], [-4.0, 10.0, -4.0, 0.0, 0.0, -0.0], [-4.0, -4.0, 10.0, -0.0, 0.0, 0.0], [0.0, 0.0, -0.0, 12.4, -0.0, -0.0], [-0.0, 0.0, 0.0, -0.0, 12.4, -0.0], [0.0, -0.0, 0.0, -0.0, -0.0, 12.4]], 'warnings': [], 'nsites': 4}",0,58,160,0.83,0.34,155.44
145,mp-866051,HfFe2Sn,"{'Hf': 1.0, 'Fe': 2.0, 'Sn': 1.0}",0.169396834,11.32282752,"{'G_Reuss': 107.0, 'G_VRH': 107.0, 'G_Voigt': 107.0, 'G_Voigt_Reuss_Hill': 107.0, 'K_Reuss': 179.0, 'K_VRH': 179.0, 'K_Voigt': 179.0, 'K_Voigt_Reuss_Hill': 179.0, 'elastic_anisotropy': 0.0, 'elastic_tensor': [[326.0, 105.0, 105.0, 0.0, 0.0, 0.0], [105.0, 326.0, 105.0, 0.0, 0.0, 0.0], [105.0, 105.0, 326.0, 0.0, 0.0, 0.0], [0.0, 0.0, 0.0, 106.0, 0.0, 0.0], [0.0, 0.0, 0.0, 0.0, 106.0, 0.0], [0.0, 0.0, 0.0, 0.0, 0.0, 106.0]], 'homogeneous_poisson': 0.25, 'poisson_ratio': 0.25, 'universal_anisotropy': 0.0, 'elastic_tensor_original': [[326.2374672144861, 105.7934249144405, 105.7934249144405, 0.0, 0.0, 0.0], [104.73994893007277, 325.08164857621796, 104.73996695569285, -2.0391977253593406e-06, 9.953455383107461e-07, 0.0], [105.26675692083005, 105.2667561971756, 325.65976457555513, -5.551989615083144e-06, 6.22903773869106e-06, -3.058216242771275e-06], [0.8875171250485531, -0.3390187433046618, 2.153481941077432, 105.55787197528936, -4.556320178938994e-07, 3.922887143972219e-07], [-0.8255079482448557, -0.865363882260749, -0.8286189089169116, 0.0, 105.5706191189524, 0.0], [-0.9773344170333279, 1.9277100620792789, 0.5083023665540665, 5.9959324869104e-07, 5.3241228031079095e-08, 105.57975018007211]], 'compliance_tensor': [[3.6, -0.9, -0.9, -0.0, -0.0, 0.0], [-0.9, 3.6, -0.9, -0.0, 0.0, 0.0], [-0.9, -0.9, 3.6, -0.0, -0.0, -0.0], [-0.0, -0.0, -0.0, 9.5, 0.0, -0.0], [-0.0, 0.0, -0.0, 0.0, 9.5, -0.0], [0.0, 0.0, -0.0, -0.0, -0.0, 9.5]], 'warnings': [], 'nsites': 4}",0,107,179,0,0.25,267.5
146,mp-866062,HfSiRu2,"{'Hf': 1.0, 'Si': 1.0, 'Ru': 2.0}",0.095356889,11.45137917,"{'G_Reuss': 104.0, 'G_VRH': 106.0, 'G_Voigt': 108.0, 'G_Voigt_Reuss_Hill': 106.0, 'K_Reuss': 224.0, 'K_VRH': 224.0, 'K_Voigt': 224.0, 'K_Voigt_Reuss_Hill': 224.0, 'elastic_anisotropy': 0.21, 'elastic_tensor': [[405.0, 134.0, 134.0, 0.0, 0.0, 0.0], [134.0, 405.0, 134.0, 0.0, 0.0, 0.0], [134.0, 134.0, 405.0, 0.0, 0.0, 0.0], [0.0, 0.0, 0.0, 90.0, 0.0, 0.0], [0.0, 0.0, 0.0, 0.0, 90.0, 0.0], [0.0, 0.0, 0.0, 0.0, 0.0, 90.0]], 'homogeneous_poisson': 0.3, 'poisson_ratio': 0.3, 'universal_anisotropy': 0.21, 'elastic_tensor_original': [[405.4541760485739, 133.68022916655457, 133.68022916655457, 0.0, 0.0, 0.0], [133.6787570471608, 405.4524283043352, 133.6787570471608, 0.0, 0.0, 0.0], [133.67741582219512, 133.67741582219512, 405.4513433748697, 0.0, 0.0, 0.0], [-3.883332354616009e-05, -6.208665102126332e-05, -5.213332019632303e-05, 90.08597503248279, 0.0, 0.0], [-3.343332490386856e-06, 2.332332745808844e-05, 7.363331478185483e-06, 0.0, 90.08596571248518, 0.0], [-2.9259992626262496e-05, -3.4699991254986094e-05, -4.365665566501939e-05, 0.0, 0.0, 90.08597148915037]], 'compliance_tensor': [[2.9, -0.7, -0.7, 0.0, 0.0, -0.0], [-0.7, 2.9, -0.7, -0.0, 0.0, 0.0], [-0.7, -0.7, 2.9, 0.0, -0.0, 0.0], [0.0, -0.0, 0.0, 11.1, -0.0, -0.0], [0.0, 0.0, -0.0, -0.0, 11.1, 0.0], [-0.0, 0.0, 0.0, -0.0, 0.0, 11.1]], 'warnings': [], 'nsites': 4}",0,106,224,0.21,0.3,275.6
147,mp-866094,HfZnCu2,"{'Hf': 1.0, 'Zn': 1.0, 'Cu': 2.0}",0.171373461,10.50891644,"{'G_Reuss': 35.0, 'G_VRH': 43.0, 'G_Voigt': 51.0, 'G_Voigt_Reuss_Hill': 43.0, 'K_Reuss': 133.0, 'K_VRH': 133.0, 'K_Voigt': 133.0, 'K_Voigt_Reuss_Hill': 133.0, 'elastic_anisotropy': 2.19, 'elastic_tensor': [[160.0, 120.0, 120.0, 0.0, 0.0, 0.0], [120.0, 160.0, 120.0, 0.0, 0.0, 0.0], [120.0, 120.0, 160.0, 0.0, 0.0, 0.0], [0.0, 0.0, 0.0, 71.0, 0.0, 0.0], [0.0, 0.0, 0.0, 0.0, 71.0, 0.0], [0.0, 0.0, 0.0, 0.0, 0.0, 71.0]], 'homogeneous_poisson': 0.35, 'poisson_ratio': 0.35, 'universal_anisotropy': 2.19, 'elastic_tensor_original': [[160.31910368161383, 119.99212592353024, 119.99380486487497, -3.315668759944166e-05, 6.503658337796618e-05, -0.0007439314464737311], [119.75420071632365, 160.0736631439239, 119.74873993124677, 0.00023305382487753582, -0.0001472296890597684, -0.0012862254561712718], [119.96846738386716, 119.96811331398045, 160.29176817646572, 0.00038231887023660775, 0.00046112076636657017, -0.0014720725194838679], [0.0008592996239745226, 0.0013406443638040938, 0.0012937648961504605, 71.48527408078644, 1.1559997628019353e-05, 0.0], [0.0010224184352658715, 0.0005022999823403605, 0.0009339047202478799, 1.155999721683434e-05, 71.48367948732819, 0.0], [0.0001404132059882909, 0.00010909689877425499, 2.0699605792257753e-06, 0.0, 0.0, 71.48657343013993]], 'compliance_tensor': [[17.4, -7.4, -7.4, 0.0, -0.0, -0.0], [-7.4, 17.4, -7.4, -0.0, 0.0, 0.0], [-7.4, -7.4, 17.4, 0.0, 0.0, 0.0], [0.0, -0.0, 0.0, 14.0, -0.0, -0.0], [-0.0, 0.0, 0.0, -0.0, 14.0, -0.0], [-0.0, 0.0, 0.0, -0.0, -0.0, 14.0]], 'warnings': [], 'nsites': 4}",0,43,133,2.19,0.35,116.1
148,mp-866114,HfTc2W,"{'Hf': 1.0, 'Tc': 2.0, 'W': 1.0}",0.121145535,14.2574356,"{'G_Reuss': 115.0, 'G_VRH': 119.0, 'G_Voigt': 123.0, 'G_Voigt_Reuss_Hill': 119.0, 'K_Reuss': 244.0, 'K_VRH': 244.0, 'K_Voigt': 244.0, 'K_Voigt_Reuss_Hill': 244.0, 'elastic_anisotropy': 0.38, 'elastic_tensor': [[465.0, 133.0, 133.0, 0.0, 0.0, 0.0], [133.0, 465.0, 133.0, 0.0, 0.0, 0.0], [133.0, 133.0, 465.0, 0.0, 0.0, 0.0], [0.0, 0.0, 0.0, 95.0, 0.0, 0.0], [0.0, 0.0, 0.0, 0.0, 95.0, 0.0], [0.0, 0.0, 0.0, 0.0, 0.0, 95.0]], 'homogeneous_poisson': 0.29, 'poisson_ratio': 0.29, 'universal_anisotropy': 0.38, 'elastic_tensor_original': [[464.7384936441211, 133.42969106404573, 133.42969106404573, 0.0, 0.0, 0.0], [133.4273670464057, 464.7366248287054, 133.4273670464057, 0.0, 0.0, 0.0], [133.42534464943645, 133.42534464943645, 464.73439112496226, 0.0, 0.0, 0.0], [0.0002184731272300892, 0.00023109308917514118, 0.00024436308753658366, 95.11081945097739, 0.0, 0.0], [-1.9470109298489538e-05, -2.345342806027307e-05, -1.2133435715497406e-05, 0.0, 95.1108493409011, 0.0], [0.00011161994163451411, 0.00010165659059537739, 0.00011299993288181458, 0.0, 0.0, 95.11085341765377]], 'compliance_tensor': [[2.5, -0.6, -0.6, 0.0, 0.0, -0.0], [-0.6, 2.5, -0.6, -0.0, 0.0, 0.0], [-0.6, -0.6, 2.5, 0.0, -0.0, 0.0], [0.0, -0.0, 0.0, 10.5, -0.0, -0.0], [0.0, 0.0, -0.0, -0.0, 10.5, -0.0], [-0.0, 0.0, 0.0, -0.0, -0.0, 10.5]], 'warnings': [], 'nsites': 4}",0,119,244,0.38,0.29,307.02
149,mp-866221,HfSnRh2,"{'Hf': 1.0, 'Sn': 1.0, 'Rh': 2.0}",0.122262401,12.11180429,"{'G_Reuss': -96.0, 'G_VRH': -32.0, 'G_Voigt': 32.0, 'G_Voigt_Reuss_Hill': -32.0, 'K_Reuss': 179.0, 'K_VRH': 179.0, 'K_Voigt': 179.0, 'K_Voigt_Reuss_Hill': 179.0, 'elastic_anisotropy': -6.68, 'elastic_tensor': [[151.0, 193.0, 193.0, 0.0, 0.0, 0.0], [193.0, 151.0, 193.0, 0.0, 0.0, 0.0], [193.0, 193.0, 151.0, 0.0, 0.0, 0.0], [0.0, 0.0, 0.0, 67.0, 0.0, 0.0], [0.0, 0.0, 0.0, 0.0, 67.0, 0.0], [0.0, 0.0, 0.0, 0.0, 0.0, 67.0]], 'homogeneous_poisson': 0.59, 'poisson_ratio': 0.59, 'universal_anisotropy': -6.68, 'elastic_tensor_original': [[151.15855376563724, 192.47080289498118, 192.47080289498118, 0.0, 0.0, 0.0], [192.37797834482706, 151.00516607878916, 192.37797834482706, 0.0, 0.0, 0.0], [192.70789652068788, 192.70789652068788, 151.39700165824127, 0.0, 0.0, 0.0], [-0.0003145995289109434, 0.00015424976902279626, 0.0003083828715535143, 67.29082820378284, 0.0, 0.0], [0.0, 0.0, 0.0, 0.0, 67.29082820378282, 0.0], [0.0, 0.0, 0.0, 0.0, 0.0, 67.29082888711514]], 'compliance_tensor': [[-15.5, 8.7, 8.7, 0.0, 0.0, 0.0], [8.7, -15.5, 8.7, 0.0, 0.0, 0.0], [8.7, 8.7, -15.5, 0.0, 0.0, 0.0], [0.0, 0.0, 0.0, 14.9, 0.0, 0.0], [0.0, 0.0, 0.0, 0.0, 14.9, 0.0], [0.0, 0.0, 0.0, 0.0, 0.0, 14.9]], 'warnings': ['Elastic tensor has a negative eigenvalue', 'c11 and c12 are within 5% or c12 is greater than c11', 'c11 and c13 are within 5% or c13 is greater than c11', 'c11 and c23 are within 5% or c23 is greater than c11', 'One or more K, G below 2 GPa'], 'nsites': 4}",0,-32,179,-6.68,0.59,-101.76
150,mp-867119,LiHfPd2,"{'Li': 1.0, 'Hf': 1.0, 'Pd': 2.0}",0.163727767,10.11668538,"{'G_Reuss': 20.0, 'G_VRH': 21.0, 'G_Voigt': 23.0, 'G_Voigt_Reuss_Hill': 21.0, 'K_Reuss': 117.0, 'K_VRH': 117.0, 'K_Voigt': 117.0, 'K_Voigt_Reuss_Hill': 117.0, 'elastic_anisotropy': 1.01, 'elastic_tensor': [[134.0, 108.0, 108.0, 0.0, 0.0, 0.0], [108.0, 134.0, 108.0, 0.0, 0.0, 0.0], [108.0, 108.0, 134.0, 0.0, 0.0, 0.0], [0.0, 0.0, 0.0, 31.0, 0.0, 0.0], [0.0, 0.0, 0.0, 0.0, 31.0, 0.0], [0.0, 0.0, 0.0, 0.0, 0.0, 31.0]], 'homogeneous_poisson': 0.41, 'poisson_ratio': 0.41, 'universal_anisotropy': 1.01, 'elastic_tensor_original': [[133.52472272631624, 108.28812050550788, 108.28812050550788, 0.0, 0.0, 0.0], [108.28696626743832, 133.52357896343338, 108.28696626743832, 0.0, 0.0, 0.0], [108.28922974511445, 108.28922974511445, 133.52526122798812, 0.0, 0.0, 0.0], [0.01493244800611002, 0.01422826127627712, 0.014011571256839331, 30.71122366480063, 0.0, 0.0], [-0.0021321701912556026, -0.018765788349959307, -0.007342940658663027, 0.0, 30.689621352862897, 0.0], [0.014269887946677457, 0.014172447937936889, 0.015199821363425276, 0.0, 0.0, 30.711200634798562]], 'compliance_tensor': [[27.4, -12.3, -12.3, 0.0, -0.0, -0.0], [-12.3, 27.4, -12.3, -0.0, 0.0, -0.0], [-12.3, -12.3, 27.4, -0.0, -0.0, 0.0], [0.0, -0.0, -0.0, 32.6, -0.0, -0.0], [-0.0, 0.0, -0.0, -0.0, 32.6, -0.0], [-0.0, -0.0, 0.0, -0.0, -0.0, 32.6]], 'warnings': [], 'nsites': 4}",0,21,117,1.01,0.41,59.22
151,mp-867300,Rb2Hf2O5,"{'Rb': 2.0, 'Hf': 2.0, 'O': 5.0}",0.56625278,6.696301951,"{'G_Reuss': 33.0, 'G_VRH': 39.0, 'G_Voigt': 45.0, 'G_Voigt_Reuss_Hill': 39.0, 'K_Reuss': 78.0, 'K_VRH': 87.0, 'K_Voigt': 95.0, 'K_Voigt_Reuss_Hill': 87.0, 'elastic_anisotropy': 2.09, 'elastic_tensor': [[166.0, 133.0, 39.0, 0.0, 0.0, 0.0], [133.0, 166.0, 39.0, 0.0, 0.0, 0.0], [39.0, 39.0, 99.0, 0.0, 0.0, 0.0], [0.0, 0.0, 0.0, 35.0, 0.0, 0.0], [0.0, 0.0, 0.0, 0.0, 35.0, 0.0], [0.0, 0.0, 0.0, 0.0, 0.0, 83.0]], 'homogeneous_poisson': 0.3, 'poisson_ratio': 0.3, 'universal_anisotropy': 2.09, 'elastic_tensor_original': [[166.00013567417372, 133.36127692377883, 41.50598396121578, 0.0, 0.0, 0.0], [133.36204098869362, 165.99599807826215, 41.51027325882791, 0.0, 0.0, 0.0], [37.354999610269466, 37.354999610269466, 98.96087254942042, 0.0, 0.0, 0.0], [1.9570065045902943e-05, -1.0903308536848304e-05, -8.848994810218401e-05, 35.33439242710337, 0.0, 0.0], [-0.004250029103174534, -0.012063020708428738, 0.00028003676601683015, 0.0, 35.3334853906976, 0.0], [3.194664373389003e-05, -0.00017302999455974375, -0.00015549665267395736, 0.0, 0.0, 83.4796590160508]], 'compliance_tensor': [[17.2, -13.5, -1.5, 0.0, -0.0, -0.0], [-13.5, 17.2, -1.5, 0.0, 0.0, 0.0], [-1.5, -1.5, 11.3, 0.0, -0.0, 0.0], [0.0, 0.0, 0.0, 28.3, 0.0, 0.0], [-0.0, 0.0, -0.0, 0.0, 28.3, 0.0], [-0.0, 0.0, 0.0, 0.0, 0.0, 12.0]], 'warnings': [], 'nsites': 9}",0,39,87,2.09,0.3,101.4
152,mp-9321,Ba2HfS4,"{'Ba': 2.0, 'Hf': 1.0, 'S': 4.0}",0.213098908,4.933313512,"{'G_Reuss': 29.0, 'G_VRH': 30.0, 'G_Voigt': 32.0, 'G_Voigt_Reuss_Hill': 30.0, 'K_Reuss': 58.0, 'K_VRH': 58.0, 'K_Voigt': 58.0, 'K_Voigt_Reuss_Hill': 58.0, 'elastic_anisotropy': 0.51, 'elastic_tensor': [[120.0, 24.0, 30.0, 0.0, 0.0, 0.0], [24.0, 120.0, 30.0, 0.0, 0.0, 0.0], [30.0, 30.0, 108.0, 0.0, 0.0, 0.0], [0.0, 0.0, 0.0, 23.0, 0.0, 0.0], [0.0, 0.0, 0.0, 0.0, 23.0, 0.0], [0.0, 0.0, 0.0, 0.0, 0.0, 26.0]], 'homogeneous_poisson': 0.28, 'poisson_ratio': 0.28, 'universal_anisotropy': 0.51, 'elastic_tensor_original': [[120.23479537496114, 24.417834791405493, 30.58471605535021, 0.0, 0.0, 0.0], [24.417958291072996, 120.23496735281273, 30.584918781539624, 0.0, 0.0, 0.0], [30.203478266853473, 30.203478266853473, 107.73561147571753, 0.0, 0.0, 0.0], [3.0373332520074205e-05, 4.128666556085887e-05, 2.5646665979665934e-05, 22.56129641580522, 0.0, 0.0], [1.720666620503128e-05, 1.2896666321390023e-05, 1.0256666391918807e-05, 0.0, 22.5613869658028, 0.0], [-1.286666573273391e-06, 9.209999332797011e-06, 1.2436665765444311e-05, 0.0, 0.0, 25.557408601272545]], 'compliance_tensor': [[9.1, -1.3, -2.2, -0.0, 0.0, -0.0], [-1.3, 9.1, -2.2, 0.0, -0.0, 0.0], [-2.2, -2.2, 10.5, -0.0, -0.0, -0.0], [-0.0, 0.0, -0.0, 44.3, 0.0, 0.0], [0.0, -0.0, -0.0, 0.0, 44.3, -0.0], [-0.0, 0.0, -0.0, 0.0, -0.0, 39.1]], 'warnings': [], 'nsites': 7}",0,30,58,0.51,0.28,76.8
153,mp-973890,HoHfRu2,"{'Ho': 1.0, 'Hf': 1.0, 'Ru': 2.0}",0.133853852,12.47885918,"{'G_Reuss': 69.0, 'G_VRH': 72.0, 'G_Voigt': 76.0, 'G_Voigt_Reuss_Hill': 72.0, 'K_Reuss': 168.0, 'K_VRH': 168.0, 'K_Voigt': 168.0, 'K_Voigt_Reuss_Hill': 168.0, 'elastic_anisotropy': 0.46, 'elastic_tensor': [[307.0, 99.0, 99.0, 0.0, 0.0, 0.0], [99.0, 307.0, 99.0, 0.0, 0.0, 0.0], [99.0, 99.0, 307.0, 0.0, 0.0, 0.0], [0.0, 0.0, 0.0, 57.0, 0.0, 0.0], [0.0, 0.0, 0.0, 0.0, 57.0, 0.0], [0.0, 0.0, 0.0, 0.0, 0.0, 57.0]], 'homogeneous_poisson': 0.31, 'poisson_ratio': 0.31, 'universal_anisotropy': 0.46, 'elastic_tensor_original': [[306.957060800695, 99.23500346153956, 99.23500346153956, 0.0, 0.0, 0.0], [99.23500346153956, 306.957060800695, 99.23500346153956, 0.0, 0.0, 0.0], [99.23500346153956, 99.23500346153956, 306.957060800695, 0.0, 0.0, 0.0], [0.0, 0.0, 0.0, 56.59961696584649, 0.0, 0.0], [0.0, 0.0, 0.0, 0.0, 56.59961696584649, 0.0], [0.0, 0.0, 0.0, 0.0, 0.0, 56.59961696584649]], 'compliance_tensor': [[3.9, -0.9, -0.9, -0.0, 0.0, -0.0], [-0.9, 3.9, -0.9, 0.0, -0.0, 0.0], [-0.9, -0.9, 3.9, 0.0, 0.0, 0.0], [-0.0, 0.0, 0.0, 17.7, 0.0, 0.0], [0.0, -0.0, 0.0, 0.0, 17.7, 0.0], [-0.0, 0.0, 0.0, 0.0, 0.0, 17.7]], 'warnings': ['Contains a rare earth element'], 'nsites': 4}",0,72,168,0.46,0.31,188.64
154,mp-974943,HfZrTc2,"{'Hf': 1.0, 'Zr': 1.0, 'Tc': 2.0}",0.122386736,10.93601616,"{'G_Reuss': 65.0, 'G_VRH': 67.0, 'G_Voigt': 69.0, 'G_Voigt_Reuss_Hill': 67.0, 'K_Reuss': 141.0, 'K_VRH': 141.0, 'K_Voigt': 141.0, 'K_Voigt_Reuss_Hill': 141.0, 'elastic_anisotropy': 0.32, 'elastic_tensor': [[263.0, 81.0, 81.0, 0.0, 0.0, 0.0], [81.0, 263.0, 81.0, 0.0, 0.0, 0.0], [81.0, 81.0, 263.0, 0.0, 0.0, 0.0], [0.0, 0.0, 0.0, 55.0, 0.0, 0.0], [0.0, 0.0, 0.0, 0.0, 55.0, 0.0], [0.0, 0.0, 0.0, 0.0, 0.0, 55.0]], 'homogeneous_poisson': 0.29, 'poisson_ratio': 0.29, 'universal_anisotropy': 0.32, 'elastic_tensor_original': [[263.14920078193313, 80.63383032137457, 80.63383032137457, 0.0, 0.0, 0.0], [80.63383032137459, 263.14920078193313, 80.63383032137465, 0.0, 0.0, 0.0], [80.63383032137463, 80.63383032137457, 263.14920078193313, 0.0, 0.0, 0.0], [0.0, 0.0, 0.0, 54.91422756184031, 0.0, 0.0], [0.0, 0.0, 0.0, 0.0, 54.91422756184033, 0.0], [0.0, 0.0, 0.0, 0.0, 0.0, 54.91422756184032]], 'compliance_tensor': [[4.4, -1.0, -1.0, -0.0, 0.0, -0.0], [-1.0, 4.4, -1.0, 0.0, -0.0, 0.0], [-1.0, -1.0, 4.4, 0.0, 0.0, -0.0], [-0.0, 0.0, 0.0, 18.2, 0.0, 0.0], [0.0, -0.0, 0.0, 0.0, 18.2, 0.0], [-0.0, 0.0, -0.0, 0.0, 0.0, 18.2]], 'warnings': [], 'nsites': 4}",0,67,141,0.32,0.29,172.86
155,mp-9755,HfGeO4,"{'Hf': 1.0, 'Ge': 1.0, 'O': 4.0}",0.600267285,8.265722127,"{'G_Reuss': 88.0, 'G_VRH': 91.0, 'G_Voigt': 94.0, 'G_Voigt_Reuss_Hill': 91.0, 'K_Reuss': 229.0, 'K_VRH': 231.0, 'K_Voigt': 233.0, 'K_Voigt_Reuss_Hill': 231.0, 'elastic_anisotropy': 0.36, 'elastic_tensor': [[412.0, 174.0, 148.0, 0.0, 0.0, -18.0], [174.0, 412.0, 148.0, 0.0, 0.0, 18.0], [148.0, 148.0, 330.0, 0.0, 0.0, 0.0], [0.0, 0.0, 0.0, 69.0, 0.0, 0.0], [0.0, 0.0, 0.0, 0.0, 69.0, 0.0], [-18.0, 18.0, 0.0, 0.0, 0.0, 103.0]], 'homogeneous_poisson': 0.33, 'poisson_ratio': 0.33, 'universal_anisotropy': 0.36, 'elastic_tensor_original': [[412.19359925297954, 173.71407842353838, 160.77919704860082, 0.0, 1.5199888335246698e-05, -12.428727493356241], [173.71407842353838, 412.19359925297954, 160.77919704860082, 1.5199888337545119e-05, 3.035873139123847e-07, 12.428720693406225], [136.15782448332814, 136.15782448332814, 329.71984499234884, 0.0, 0.0, -5.2799263095453376e-05], [-3.3264153526344006e-09, 1.2956191205301048e-07, 0.0, 68.61571365072354, -1.7616834459617925, 6.31177186350773e-08], [1.2956191309564594e-07, 3.3264855158679785e-09, 0.0, 1.7616834459617923, 68.61571365072354, 6.64441923752977e-08], [-22.868995793756028, 22.868995793756074, 0.0, -5.999963780163489e-07, 5.877659330433275e-07, 102.60580813616103]], 'compliance_tensor': [[3.257091527028976, -1.0456847609188586, -0.9957673893415955, 1.1814903378659887e-09, -6.1501219919293564e-09, 0.7401052382310171], [-1.0456847609188586, 3.257091527028977, -0.9957673893415957, -1.1180446248104263e-08, 1.9744882190423955e-09, -0.7401052382310173], [-0.9957673893415953, -0.9957673893415955, 3.9296397302376027, -7.420044402501129e-09, -1.1879188907399355e-08, 4.664062361280823e-17], [1.1814903378659905e-09, -1.1180446248104265e-08, -7.4200444025011275e-09, 14.573921144219641, 2.3749966084427523e-17, -9.441732313920202e-09], [-6.1501219919293564e-09, 1.974488219042395e-09, -1.1879188907399356e-08, 2.3749966084427532e-17, 14.573921144219641, -1.5156907171304765e-08], [0.7401052382310173, -0.7401052382310173, 8.154507887716356e-17, -9.441732313920202e-09, -1.5156907171304765e-08, 10.000642712392885]], 'warnings': [], 'nsites': 12}",0,91,231,0.36,0.33,242.06
156,mp-977541,Hf2TcOs,"{'Hf': 2.0, 'Tc': 1.0, 'Os': 1.0}",0.117296622,15.4565558,"{'G_Reuss': 85.0, 'G_VRH': 87.0, 'G_Voigt': 89.0, 'G_Voigt_Reuss_Hill': 87.0, 'K_Reuss': 209.0, 'K_VRH': 209.0, 'K_Voigt': 209.0, 'K_Voigt_Reuss_Hill': 209.0, 'elastic_anisotropy': 0.2, 'elastic_tensor': [[357.0, 135.0, 135.0, 0.0, 0.0, 0.0], [135.0, 357.0, 135.0, 0.0, 0.0, 0.0], [135.0, 135.0, 357.0, 0.0, 0.0, 0.0], [0.0, 0.0, 0.0, 74.0, 0.0, 0.0], [0.0, 0.0, 0.0, 0.0, 74.0, 0.0], [0.0, 0.0, 0.0, 0.0, 0.0, 74.0]], 'homogeneous_poisson': 0.32, 'poisson_ratio': 0.32, 'universal_anisotropy': 0.2, 'elastic_tensor_original': [[356.83493738819163, 135.08919796961547, 135.08919796961547, 0.0, 0.0, 0.0], [135.08919796961547, 356.83493738819163, 135.08919796961547, 0.0, 0.0, 0.0], [135.08919796961547, 135.08919796961547, 356.83493738819163, 0.0, 0.0, 0.0], [0.0, 0.0, 0.0, 73.8042607385055, 0.0, 0.0], [0.0, 0.0, 0.0, 0.0, 73.8042607385055, 0.0], [0.0, 0.0, 0.0, 0.0, 0.0, 73.8042607385055]], 'compliance_tensor': [[3.5, -1.0, -1.0, -0.0, 0.0, -0.0], [-1.0, 3.5, -1.0, 0.0, -0.0, 0.0], [-1.0, -1.0, 3.5, 0.0, 0.0, 0.0], [-0.0, 0.0, 0.0, 13.5, 0.0, 0.0], [0.0, -0.0, 0.0, 0.0, 13.5, 0.0], [-0.0, 0.0, 0.0, 0.0, 0.0, 13.5]], 'warnings': [], 'nsites': 4}",0,87,209,0.2,0.32,229.68