,mp_id,Formula,Composition,IPF,Density,Elastic_Tensor,E_above_Hull,G_VRH,K_VRH,Elastic_Anisotropy,poisson_ratio,Y_Modulus
157,mp-977572,Hf2MnRh,"{'Hf': 2.0, 'Mn': 1.0, 'Rh': 1.0}",0.120952045,12.89528143,"{'G_Reuss': 77.0, 'G_VRH': 78.0, 'G_Voigt': 79.0, 'G_Voigt_Reuss_Hill': 78.0, 'K_Reuss': 167.0, 'K_VRH': 167.0, 'K_Voigt': 167.0, 'K_Voigt_Reuss_Hill': 167.0, 'elastic_anisotropy': 0.16, 'elastic_tensor': [[296.0, 103.0, 103.0, 0.0, 0.0, 0.0], [103.0, 296.0, 103.0, 0.0, 0.0, 0.0], [103.0, 103.0, 296.0, 0.0, 0.0, 0.0], [0.0, 0.0, 0.0, 68.0, 0.0, 0.0], [0.0, 0.0, 0.0, 0.0, 68.0, 0.0], [0.0, 0.0, 0.0, 0.0, 0.0, 68.0]], 'homogeneous_poisson': 0.3, 'poisson_ratio': 0.3, 'universal_anisotropy': 0.16, 'elastic_tensor_original': [[296.3424752857188, 102.58537768858173, 102.61280827665033, 0.0604676510659412, 0.005635274286279002, 0.34088039551781185], [102.58853913962523, 296.37035912832357, 102.5937683732241, 0.004283451600113411, -0.2881963574977508, -0.11826442591490295], [102.57425879709268, 102.59166854289948, 296.3978590407613, 0.0905586374659687, 0.006989617651744439, -0.5155949489295413], [0.032338951327563856, 0.2616777200152724, -0.18651957476681782, 67.66709852786788, -0.141299869843366, -0.14809882706757818], [0.0025635416533219954, 0.002975202759433965, 0.006345757142352209, 0.07538601113064972, 67.65010599179968, -0.11492379020929269], [0.6304844870575999, -0.7101593817894108, -0.03534141393685412, 0.05233397087057512, -0.05613170910286572, 67.73760581997382]], 'compliance_tensor': [[4.1, -1.1, -1.1, -0.0, -0.0, -0.0], [-1.1, 4.1, -1.1, 0.0, 0.0, -0.0], [-1.1, -1.1, 4.1, 0.0, -0.0, 0.0], [-0.0, 0.0, 0.0, 14.8, -0.0, -0.0], [-0.0, 0.0, -0.0, -0.0, 14.8, 0.0], [-0.0, -0.0, 0.0, -0.0, 0.0, 14.8]], 'warnings': [], 'nsites': 4}",0,78,167,0.16,0.3,202.8
158,mp-9801,HfCoAs,"{'Hf': 1.0, 'Co': 1.0, 'As': 1.0}",0.126372678,11.54638033,"{'G_Reuss': 91.0, 'G_VRH': 92.0, 'G_Voigt': 93.0, 'G_Voigt_Reuss_Hill': 92.0, 'K_Reuss': 181.0, 'K_VRH': 181.0, 'K_Voigt': 181.0, 'K_Voigt_Reuss_Hill': 181.0, 'elastic_anisotropy': 0.11, 'elastic_tensor': [[282.0, 118.0, 131.0, 0.0, 0.0, 0.0], [118.0, 295.0, 138.0, 0.0, 0.0, 0.0], [131.0, 138.0, 284.0, 0.0, 0.0, 0.0], [0.0, 0.0, 0.0, 94.0, 0.0, 0.0], [0.0, 0.0, 0.0, 0.0, 111.0, 0.0], [0.0, 0.0, 0.0, 0.0, 0.0, 101.0]], 'homogeneous_poisson': 0.28, 'poisson_ratio': 0.28, 'universal_anisotropy': 0.11, 'elastic_tensor_original': [[283.86304431550514, 133.57120076475465, 138.3415107572463, 0.0, 0.0, 0.0], [127.78264849446349, 281.5540482682502, 117.64385643320023, 0.0, 0.0, 0.0], [137.08168386534683, 117.89822426009887, 294.9638660164343, 0.0, 0.0, 0.0], [-5.3283377727249847e-05, -6.334339122196397e-05, -6.744004972065201e-05, 100.59037801194708, 0.0, 0.0], [5.597994089980473e-05, 5.8310017582450696e-05, 0.00010770331205334834, 0.0, 94.37788464184166, 0.0], [7.089332040665916e-05, 3.887662321014562e-05, 6.268660966109293e-05, 0.0, 0.0, 111.49252347988022]], 'compliance_tensor': [[4.8, -1.1, -1.7, 0.0, 0.0, 0.0], [-1.1, 4.7, -1.7, 0.0, -0.0, 0.0], [-1.7, -1.7, 5.1, 0.0, -0.0, 0.0], [0.0, 0.0, 0.0, 10.6, 0.0, 0.0], [0.0, -0.0, -0.0, 0.0, 9.0, 0.0], [0.0, 0.0, 0.0, 0.0, 0.0, 9.9]], 'warnings': [], 'nsites': 12}",0,92,181,0.11,0.28,235.52
159,mp-983358,HfAlFe2,"{'Hf': 1.0, 'Al': 1.0, 'Fe': 2.0}",0.165467431,9.628102428,"{'G_Reuss': 91.0, 'G_VRH': 91.0, 'G_Voigt': 91.0, 'G_Voigt_Reuss_Hill': 91.0, 'K_Reuss': 166.0, 'K_VRH': 166.0, 'K_Voigt': 166.0, 'K_Voigt_Reuss_Hill': 166.0, 'elastic_anisotropy': 0.01, 'elastic_tensor': [[279.0, 109.0, 109.0, 0.0, -0.0, -0.0], [109.0, 279.0, 109.0, -0.0, 0.0, -0.0], [109.0, 109.0, 279.0, -0.0, -0.0, 0.0], [0.0, -0.0, -0.0, 94.0, 0.0, 0.0], [-0.0, 0.0, -0.0, 0.0, 94.0, 0.0], [-0.0, -0.0, 0.0, 0.0, 0.0, 94.0]], 'homogeneous_poisson': 0.27, 'poisson_ratio': 0.27, 'universal_anisotropy': 0.01, 'elastic_tensor_original': [[279.10114815545853, 108.30771668597622, 108.54957708408084, 1.1480437106801664, -1.4376043250783654, -1.4468074966967306], [108.7796818618218, 279.0443002585347, 108.56769947386998, -1.429062049670759, 1.0056812638162416, -1.3578640628402088], [109.03493165526028, 108.74105533711075, 279.51336359341235, -1.427999672460165, -1.4351960843478306, 1.0665091217290916], [-2.0935891308574646, -1.7926664387015698, -2.410182395999017, 94.30445400937334, 0.1723256541198634, 0.3294639317753922], [-2.268292184279655, -2.290854283239931, -2.269782853042113, 0.29791609190975454, 94.62437804842202, 0.1692243099391912], [5.348398503035945, 3.3476358697875126, 4.3843922006296685, 0.14932345748917966, 0.29436972131457173, 94.56206625980396]], 'compliance_tensor': [[4.6, -1.3, -1.3, -0.0, 0.0, 0.0], [-1.3, 4.6, -1.3, 0.0, -0.0, 0.0], [-1.3, -1.3, 4.6, 0.0, 0.0, -0.0], [-0.0, 0.0, 0.0, 10.6, 0.0, 0.0], [0.0, -0.0, 0.0, 0.0, 10.6, 0.0], [0.0, 0.0, -0.0, 0.0, 0.0, 10.6]], 'warnings': [], 'nsites': 4}",0,91,166,0.01,0.27,231.14
160,mp-998552,BaHfO3,"{'Ba': 1.0, 'Hf': 1.0, 'O': 3.0}",0.559245282,8.128152024,"{'G_Reuss': 102.0, 'G_VRH': 103.0, 'G_Voigt': 103.0, 'G_Voigt_Reuss_Hill': 103.0, 'K_Reuss': 159.0, 'K_VRH': 159.0, 'K_Voigt': 159.0, 'K_Voigt_Reuss_Hill': 159.0, 'elastic_anisotropy': 0.05, 'elastic_tensor': [[314.0, 82.0, 82.0, 0.0, 0.0, 0.0], [82.0, 314.0, 82.0, 0.0, 0.0, 0.0], [82.0, 82.0, 314.0, 0.0, 0.0, 0.0], [0.0, 0.0, 0.0, 94.0, 0.0, 0.0], [0.0, 0.0, 0.0, 0.0, 94.0, 0.0], [0.0, 0.0, 0.0, 0.0, 0.0, 94.0]], 'homogeneous_poisson': 0.23, 'poisson_ratio': 0.23, 'universal_anisotropy': 0.05, 'elastic_tensor_original': [[313.9117617405556, 81.56716990213431, 81.56716990213431, 0.0, 0.0, 0.0], [81.57525165193634, 313.9214855966799, 81.57525165193634, 0.0, 0.0, 0.0], [81.56539125787897, 81.56539125787897, 313.91038942804147, 0.0, 0.0, 0.0], [0.00033208038670926504, 0.00032567037924541016, 0.0004489371894562712, 94.45739875944672, 0.0, 0.0], [0.00011499680058143928, 0.0003681604287247944, 0.0003868937838727964, 0.0, 94.45745360617724, 0.0], [-0.00021424358282092935, -0.00021137357947937345, 2.622669720793422e-05, 0.0, 0.0, 94.45746223952065]], 'compliance_tensor': [[3.6, -0.7, -0.7, 0.0, -0.0, 0.0], [-0.7, 3.6, -0.7, 0.0, 0.0, -0.0], [-0.7, -0.7, 3.6, -0.0, 0.0, 0.0], [0.0, 0.0, -0.0, 10.6, -0.0, -0.0], [-0.0, 0.0, 0.0, -0.0, 10.6, -0.0], [0.0, -0.0, 0.0, -0.0, -0.0, 10.6]], 'warnings': [], 'nsites': 5}",0,103,159,0.05,0.23,253.38
161,mp-10076,Hf3(NiGe)4,"{'Hf': 3.0, 'Ni': 4.0, 'Ge': 4.0}",0.134340284,10.68058574,"{'G_Reuss': 87.0, 'G_VRH': 87.0, 'G_Voigt': 88.0, 'G_Voigt_Reuss_Hill': 87.0, 'K_Reuss': 159.0, 'K_VRH': 160.0, 'K_Voigt': 160.0, 'K_Voigt_Reuss_Hill': 160.0, 'elastic_anisotropy': 0.1, 'elastic_tensor': [[253.0, 94.0, 112.0, 0.0, 0.0, 0.0], [94.0, 302.0, 98.0, 0.0, 0.0, 0.0], [112.0, 98.0, 276.0, 0.0, 0.0, 0.0], [0.0, 0.0, 0.0, 78.0, 0.0, 0.0], [0.0, 0.0, 0.0, 0.0, 106.0, 0.0], [0.0, 0.0, 0.0, 0.0, 0.0, 81.0]], 'homogeneous_poisson': 0.27, 'poisson_ratio': 0.27, 'universal_anisotropy': 0.1, 'elastic_tensor_original': [[276.1746387312122, 112.4943800186217, 97.83074512298943, 0.0, 0.0, 0.0], [111.40908011131471, 253.21617985144462, 93.27134445570726, 0.0, 0.0, 0.0], [97.5736137102683, 94.92390557521061, 302.4990839445427, 0.0, 0.0, 0.0], [-0.006342547004055349, -0.020973450594146993, 0.01841092373752364, 81.10335807207322, 0.0, 0.0], [0.013882399534837402, 0.00991556300035437, 0.003365178876719345, 0.0, 77.82232045165486, 0.0], [-2.1306701866980438e-05, -2.823671332063724e-05, -5.673342706984488e-06, 0.0, 0.0, 106.02478777291634]], 'compliance_tensor': [[5.1, -1.0, -1.7, 0.0, 0.0, 0.0], [-1.0, 3.9, -1.0, 0.0, -0.0, 0.0], [-1.7, -1.0, 4.7, 0.0, 0.0, 0.0], [0.0, 0.0, 0.0, 12.8, 0.0, 0.0], [0.0, -0.0, 0.0, 0.0, 9.4, 0.0], [0.0, 0.0, 0.0, 0.0, 0.0, 12.3]], 'warnings': [], 'nsites': 11}",0,87,160,0.1,0.27,220.98
162,mp-1014251,HfZnN2,"{'Hf': 1.0, 'Zn': 1.0, 'N': 2.0}",0.153088026,9.189652946,"{'G_Reuss': 80.0, 'G_VRH': 86.0, 'G_Voigt': 92.0, 'G_Voigt_Reuss_Hill': 86.0, 'K_Reuss': 184.0, 'K_VRH': 185.0, 'K_Voigt': 185.0, 'K_Voigt_Reuss_Hill': 185.0, 'elastic_anisotropy': 0.78, 'elastic_tensor': [[346.0, 131.0, 89.0, -4.0, 0.0, 0.0], [131.0, 346.0, 89.0, 4.0, 0.0, 0.0], [89.0, 89.0, 352.0, 0.0, 0.0, 0.0], [-4.0, 4.0, 0.0, 55.0, 0.0, 0.0], [0.0, 0.0, 0.0, 0.0, 55.0, -4.0], [0.0, 0.0, 0.0, 0.0, -4.0, 107.0]], 'homogeneous_poisson': 0.3, 'poisson_ratio': 0.3, 'universal_anisotropy': 0.78, 'elastic_tensor_original': [[346.2275022118036, 128.85807281384004, 87.90739350660114, 3.073039064856958, 0.0, 0.0], [132.09399807482262, 346.5301111350495, 90.0688587739796, -5.501088035961997, 0.0, 0.0], [89.05369782981501, 89.05369314997272, 352.3607034836987, 0.0, 0.0, 0.0], [4.192881382279897, -4.311532524870091, -0.12968318276788343, 54.86388787945454, 0.0, 0.0], [-2.391334304710745e-05, -1.2506708361745436e-05, -4.577666165460151e-05, 2.5459951019828627e-05, 54.84072963605265, 4.110324550821865], [0.004722584769621324, -0.00017561008621784423, 0.001957105133819252, -0.0010434118602177136, 3.537154173146891, 106.86299680705201]], 'compliance_tensor': [[3.5, -1.2, -0.6, 0.3, 0.0, -0.0], [-1.2, 3.5, -0.6, -0.3, -0.0, -0.0], [-0.6, -0.6, 3.1, -0.0, 0.0, 0.0], [0.3, -0.3, -0.0, 18.3, -0.0, -0.0], [0.0, -0.0, 0.0, -0.0, 18.3, 0.7], [-0.0, -0.0, 0.0, -0.0, 0.7, 9.3]], 'warnings': [], 'nsites': 4}",0,86,185,0.78,0.3,223.6
163,mp-1014252,Hf3ZnN,"{'Hf': 3.0, 'Zn': 1.0, 'N': 1.0}",0.140599692,12.35518868,"{'G_Reuss': 88.0, 'G_VRH': 90.0, 'G_Voigt': 91.0, 'G_Voigt_Reuss_Hill': 90.0, 'K_Reuss': 149.0, 'K_VRH': 150.0, 'K_Voigt': 151.0, 'K_Voigt_Reuss_Hill': 150.0, 'elastic_anisotropy': 0.17, 'elastic_tensor': [[278.0, 92.0, 83.0, 0.0, 0.0, 0.0], [92.0, 221.0, 111.0, 0.0, 0.0, 0.0], [83.0, 111.0, 285.0, 0.0, 0.0, 0.0], [0.0, 0.0, 0.0, 110.0, 0.0, 0.0], [0.0, 0.0, 0.0, 0.0, 93.0, 0.0], [0.0, 0.0, 0.0, 0.0, 0.0, 85.0]], 'homogeneous_poisson': 0.25, 'poisson_ratio': 0.25, 'universal_anisotropy': 0.17, 'elastic_tensor_original': [[285.05554656440484, 110.53821617490597, 83.70412577239435, 0.0, 0.0, 0.0], [111.24394311422196, 220.75625463423228, 91.6178370788406, 0.0, 0.0, 0.0], [81.9751372579466, 91.76924787556437, 278.10250050672107, 0.0, 0.0, 0.0], [-0.005002750041427039, 0.0011679450960026957, 0.006322821632295611, 85.47392254059433, 0.0, 0.0], [-0.003133442548066541, -0.002754735976305868, -0.0037690490554456208, 0.0, 92.97447237317387, 0.0], [1.8806661940029956e-05, -4.4906655377278014e-05, 8.233331264071111e-06, 0.0, 0.0, 110.363335478723]], 'compliance_tensor': [[4.3, -1.4, -0.7, 0.0, 0.0, 0.0], [-1.4, 6.1, -2.0, -0.0, 0.0, 0.0], [-0.7, -2.0, 4.5, -0.0, 0.0, 0.0], [0.0, -0.0, -0.0, 9.1, 0.0, 0.0], [0.0, 0.0, 0.0, 0.0, 10.8, 0.0], [0.0, 0.0, 0.0, 0.0, 0.0, 11.7]], 'warnings': [], 'nsites': 10}",0,90,150,0.17,0.25,225
164,mp-1018714,HfGaCu,"{'Hf': 1.0, 'Ga': 1.0, 'Cu': 1.0}",0.137644765,10.60248948,"{'G_Reuss': 64.0, 'G_VRH': 66.0, 'G_Voigt': 67.0, 'G_Voigt_Reuss_Hill': 66.0, 'K_Reuss': 137.0, 'K_VRH': 137.0, 'K_Voigt': 137.0, 'K_Voigt_Reuss_Hill': 137.0, 'elastic_anisotropy': 0.27, 'elastic_tensor': [[230.0, 72.0, 108.0, 0.0, 0.0, 0.0], [72.0, 230.0, 108.0, 0.0, 0.0, 0.0], [108.0, 108.0, 192.0, 0.0, 0.0, 0.0], [0.0, 0.0, 0.0, 68.0, 0.0, 0.0], [0.0, 0.0, 0.0, 0.0, 68.0, 0.0], [0.0, 0.0, 0.0, 0.0, 0.0, 79.0]], 'homogeneous_poisson': 0.29, 'poisson_ratio': 0.29, 'universal_anisotropy': 0.27, 'elastic_tensor_original': [[236.46203888073012, 69.58457459938792, 107.9746957470412, 0.0, 0.0, 9.39993088970617e-06], [67.52897239245394, 231.74676891006936, 102.25490816632332, 0.0, 0.0, 0.0], [111.17727465871975, 111.14823119470569, 192.38801278180762, 0.0, 0.0, 0.0], [0.0, 0.0, 0.0, 68.34497554973052, 0.0, 0.0], [0.0, 0.0, 0.0, 0.0, 67.82854636194999, 0.0], [-2.0530907284955642e-07, 0.0, 0.0, 0.0, 0.0, 75.34086433929131]], 'compliance_tensor': [[5.9, -0.4, -3.1, 0.0, 0.0, 0.0], [-0.4, 5.9, -3.1, 0.0, 0.0, 0.0], [-3.1, -3.1, 8.7, 0.0, 0.0, -0.0], [0.0, 0.0, 0.0, 14.7, 0.0, 0.0], [0.0, 0.0, 0.0, 0.0, 14.7, 0.0], [0.0, 0.0, -0.0, 0.0, 0.0, 12.6]], 'warnings': [], 'nsites': 6}",0,66,137,0.27,0.29,170.28
165,mp-1018726,HfVGe,"{'Hf': 1.0, 'V': 1.0, 'Ge': 1.0}",0.129667916,10.07849083,"{'G_Reuss': 65.0, 'G_VRH': 78.0, 'G_Voigt': 92.0, 'G_Voigt_Reuss_Hill': 78.0, 'K_Reuss': 146.0, 'K_VRH': 146.0, 'K_Voigt': 147.0, 'K_Voigt_Reuss_Hill': 146.0, 'elastic_anisotropy': 2.05, 'elastic_tensor': [[193.0, 141.0, 91.0, 0.0, 0.0, 0.0], [141.0, 193.0, 91.0, 0.0, 0.0, 0.0], [91.0, 91.0, 288.0, 0.0, 0.0, 0.0], [0.0, 0.0, 0.0, 97.0, 0.0, 0.0], [0.0, 0.0, 0.0, 0.0, 97.0, 0.0], [0.0, 0.0, 0.0, 0.0, 0.0, 147.0]], 'homogeneous_poisson': 0.27, 'poisson_ratio': 0.27, 'universal_anisotropy': 2.05, 'elastic_tensor_original': [[193.03235071151437, 140.86784522642026, 87.73106588983721, 0.0, 0.0, 0.0], [140.86784522642026, 193.03235071151437, 87.73106588983721, 0.0, 0.0, 0.0], [93.86538839920759, 93.86538839920759, 287.5204545403432, 0.0, 0.0, 0.0], [0.0, 0.0, 0.0, 97.42590217238113, 0.0, 0.0], [0.0, 0.0, 0.0, 0.0, 97.42590217238113, 0.0], [1.4690880966581223, -1.4690880966581228, 0.0, 0.0, 0.0, 146.9028976060648]], 'compliance_tensor': [[11.4, -7.8, -1.1, 0.0, 0.0, 0.0], [-7.8, 11.4, -1.1, 0.0, 0.0, 0.0], [-1.1, -1.1, 4.2, 0.0, 0.0, 0.0], [0.0, 0.0, 0.0, 10.3, 0.0, 0.0], [0.0, 0.0, 0.0, 0.0, 10.3, 0.0], [0.0, 0.0, 0.0, 0.0, 0.0, 6.8]], 'warnings': [], 'nsites': 6}",0,78,146,2.05,0.27,198.12
166,mp-1029396,SrHfN2,"{'Sr': 1.0, 'Hf': 1.0, 'N': 2.0}",0.211021838,7.206595653,"{'G_Reuss': 38.0, 'G_VRH': 45.0, 'G_Voigt': 53.0, 'G_Voigt_Reuss_Hill': 45.0, 'K_Reuss': 116.0, 'K_VRH': 116.0, 'K_Voigt': 116.0, 'K_Voigt_Reuss_Hill': 116.0, 'elastic_anisotropy': 2.09, 'elastic_tensor': [[155.0, 123.0, 78.0, 0.0, 0.0, 0.0], [123.0, 155.0, 78.0, 0.0, 0.0, 0.0], [78.0, 78.0, 175.0, 0.0, 0.0, 0.0], [0.0, 0.0, 0.0, 49.0, 0.0, 0.0], [0.0, 0.0, 0.0, 0.0, 49.0, 0.0], [0.0, 0.0, 0.0, 0.0, 0.0, 100.0]], 'homogeneous_poisson': 0.33, 'poisson_ratio': 0.33, 'universal_anisotropy': 2.09, 'elastic_tensor_original': [[154.5832099588183, 122.84847280053083, 77.33413948599558, 0.0, 0.0, 0.0], [122.86884227330654, 154.57426689831678, 77.34304239334763, 0.0, 0.0, 0.0], [79.54373647795697, 79.54373647795697, 175.21384935318915, 0.0, 0.0, 0.0], [-0.0036766225091962056, 0.0030754760093303817, -0.017787409729224095, 49.01363924144772, 0.0, 0.0], [-0.00028738238980007425, 0.0043798214405709355, 0.001314690183597779, 0.0, 49.02555569900424, 0.0], [0.0001369302143513769, -0.00011083354170006298, 0.00013841331195512101, 0.0, 0.0, 100.29317907000728]], 'compliance_tensor': [[18.2, -13.3, -2.2, 0.0, 0.0, -0.0], [-13.3, 18.2, -2.2, 0.0, -0.0, 0.0], [-2.2, -2.2, 7.6, -0.0, 0.0, 0.0], [0.0, 0.0, -0.0, 20.4, -0.0, -0.0], [0.0, -0.0, 0.0, -0.0, 20.4, -0.0], [-0.0, 0.0, 0.0, -0.0, -0.0, 10.0]], 'warnings': [], 'nsites': 8}",0,45,116,2.09,0.33,119.7
167,mp-10379,Hf3(Cu2Ge)2,"{'Hf': 3.0, 'Cu': 4.0, 'Ge': 2.0}",0.147003872,10.98268675,"{'G_Reuss': 72.0, 'G_VRH': 74.0, 'G_Voigt': 77.0, 'G_Voigt_Reuss_Hill': 74.0, 'K_Reuss': 143.0, 'K_VRH': 143.0, 'K_Voigt': 143.0, 'K_Voigt_Reuss_Hill': 143.0, 'elastic_anisotropy': 0.35, 'elastic_tensor': [[223.0, 88.0, 112.0, 0.0, 0.0, 0.0], [88.0, 223.0, 112.0, 0.0, 0.0, 0.0], [112.0, 112.0, 219.0, 0.0, 0.0, 0.0], [0.0, 0.0, 0.0, 99.0, 0.0, 0.0], [0.0, 0.0, 0.0, 0.0, 99.0, 0.0], [0.0, 0.0, 0.0, 0.0, 0.0, 68.0]], 'homogeneous_poisson': 0.28, 'poisson_ratio': 0.28, 'universal_anisotropy': 0.35, 'elastic_tensor_original': [[225.22071492568304, 86.91222531396036, 111.40506854821966, 0.0, 0.0, 0.0], [86.27949336641976, 224.28955737565565, 111.85253389103983, 0.0, 0.0, 0.0], [111.99716306076488, 111.99713068699299, 218.77796318302816, 0.0, 0.0, 0.0], [0.019165150726123736, 0.018129511331737673, 0.022004752740054208, 99.43923616609854, 0.0, 0.0], [-0.040981311531902855, -0.041195816449631516, -0.042127491270198096, 0.0, 99.19026557904203, 0.0], [-0.008363435611600769, -0.006895174633263583, 0.006288724183225038, 0.0, 0.0, 66.33523138078908]], 'compliance_tensor': [[6.2, -1.2, -2.6, 0.0, 0.0, -0.0], [-1.2, 6.2, -2.6, 0.0, -0.0, -0.0], [-2.6, -2.6, 7.2, -0.0, 0.0, 0.0], [0.0, -0.0, -0.0, 10.1, -0.0, -0.0], [0.0, -0.0, 0.0, -0.0, 10.1, -0.0], [-0.0, -0.0, 0.0, -0.0, -0.0, 14.8]], 'warnings': [], 'nsites': 9}",0,74,143,0.35,0.28,189.44
168,mp-10457,HfSiPd,"{'Hf': 1.0, 'Si': 1.0, 'Pd': 1.0}",0.117912513,10.62009742,"{'G_Reuss': 91.0, 'G_VRH': 92.0, 'G_Voigt': 94.0, 'G_Voigt_Reuss_Hill': 92.0, 'K_Reuss': 169.0, 'K_VRH': 169.0, 'K_Voigt': 170.0, 'K_Voigt_Reuss_Hill': 169.0, 'elastic_anisotropy': 0.22, 'elastic_tensor': [[262.0, 99.0, 128.0, 0.0, 0.0, 0.0], [99.0, 309.0, 123.0, 0.0, 0.0, 0.0], [128.0, 123.0, 255.0, 0.0, 0.0, 0.0], [0.0, 0.0, 0.0, 100.0, 0.0, 0.0], [0.0, 0.0, 0.0, 0.0, 119.0, 0.0], [0.0, 0.0, 0.0, 0.0, 0.0, 95.0]], 'homogeneous_poisson': 0.27, 'poisson_ratio': 0.27, 'universal_anisotropy': 0.22, 'elastic_tensor_original': [[255.42943463076017, 127.9626801940815, 122.44070624449395, 0.0, 0.0, 0.0], [127.12831226992945, 262.23210472181836, 99.65255832325427, 0.0, 0.0, 0.0], [123.41697983474775, 99.15160347138782, 309.04151754476266, 0.0, 0.0, 0.0], [0.00012311006374086906, -4.366668924129635e-07, -0.00015340341275817563, 94.50890763889971, 0.0, 0.0], [-0.00016806668458357998, -0.00013961333927477317, 4.31064890862864e-05, 0.0, 99.95463600737408, 0.0], [-0.004727793866263285, -0.00301059320122514, 0.006824799732236108, 0.0, 0.0, 118.81757227075632]], 'compliance_tensor': [[5.2, -0.8, -2.2, 0.0, -0.0, 0.0], [-0.8, 4.1, -1.6, 0.0, 0.0, 0.0], [-2.2, -1.6, 5.8, 0.0, -0.0, 0.0], [0.0, 0.0, 0.0, 10.0, 0.0, 0.0], [-0.0, 0.0, -0.0, 0.0, 8.4, 0.0], [0.0, 0.0, 0.0, 0.0, 0.0, 10.6]], 'warnings': [], 'nsites': 12}",0,92,169,0.22,0.27,233.68
169,mp-11869,HfSnPd,"{'Hf': 1.0, 'Sn': 1.0, 'Pd': 1.0}",0.116515533,10.40380937,"{'G_Reuss': 57.0, 'G_VRH': 58.0, 'G_Voigt': 59.0, 'G_Voigt_Reuss_Hill': 58.0, 'K_Reuss': 122.0, 'K_VRH': 122.0, 'K_Voigt': 122.0, 'K_Voigt_Reuss_Hill': 122.0, 'elastic_anisotropy': 0.18, 'elastic_tensor': [[183.0, 92.0, 92.0, 0.0, 0.0, 0.0], [92.0, 183.0, 92.0, 0.0, 0.0, 0.0], [92.0, 92.0, 183.0, 0.0, 0.0, 0.0], [0.0, 0.0, 0.0, 67.0, 0.0, 0.0], [0.0, 0.0, 0.0, 0.0, 67.0, 0.0], [0.0, 0.0, 0.0, 0.0, 0.0, 67.0]], 'homogeneous_poisson': 0.3, 'poisson_ratio': 0.3, 'universal_anisotropy': 0.18, 'elastic_tensor_original': [[183.5347429440362, 91.93674819748959, 91.93674819748959, 0.0, 0.0, 0.0], [91.86106188458788, 183.34421082784107, 91.86106188458788, 0.0, 0.0, 0.0], [91.93777792019429, 91.93777792019429, 183.53757721711239, 0.0, 0.0, 0.0], [-0.00019663973652140737, 1.0323319501665606e-05, -0.00014535647190377107, 67.26895765297874, 0.0, 0.0], [0.0003284995598438467, 0.0002656663107002106, -1.350998189827014e-05, 0.0, 67.26928235921034, 0.0], [0.00013358982100304925, 0.0003288628926890921, 0.00012836649466931236, 0.0, 0.0, 67.26955069551744]], 'compliance_tensor': [[8.2, -2.7, -2.7, 0.0, 0.0, 0.0], [-2.7, 8.2, -2.7, -0.0, 0.0, 0.0], [-2.7, -2.7, 8.2, 0.0, -0.0, -0.0], [0.0, -0.0, 0.0, 14.9, -0.0, 0.0], [0.0, 0.0, -0.0, -0.0, 14.9, 0.0], [0.0, 0.0, -0.0, -0.0, 0.0, 14.9]], 'warnings': [], 'nsites': 3}",0,58,122,0.18,0.3,150.8