,mp_id,Formula,Composition,IPF,Density,Elastic_Tensor,E_above_Hull,G_VRH,K_VRH,Elastic_Anisotropy,poisson_ratio,Y_Modulus
183,mp-4893,Hf2SnC,"{'Hf': 2.0, 'Sn': 1.0, 'C': 1.0}",0.109183241,11.55373762,"{'G_Reuss': 85.0, 'G_VRH': 86.0, 'G_Voigt': 87.0, 'G_Voigt_Reuss_Hill': 86.0, 'K_Reuss': 137.0, 'K_VRH': 138.0, 'K_Voigt': 138.0, 'K_Voigt_Reuss_Hill': 138.0, 'elastic_anisotropy': 0.12, 'elastic_tensor': [[242.0, 57.0, 100.0, 0.0, 0.0, 0.0], [57.0, 242.0, 100.0, 0.0, 0.0, 0.0], [100.0, 100.0, 246.0, 0.0, 0.0, 0.0], [0.0, 0.0, 0.0, 92.0, 0.0, 0.0], [0.0, 0.0, 0.0, 0.0, 92.0, 0.0], [0.0, 0.0, 0.0, 0.0, 0.0, 92.0]], 'homogeneous_poisson': 0.24, 'poisson_ratio': 0.24, 'universal_anisotropy': 0.12, 'elastic_tensor_original': [[242.48339665774358, 56.00693444690394, 100.73446363510098, 0.0, 0.0, 0.0], [56.51463257502749, 243.59470357664785, 101.27055601398901, 0.0, 0.0, 0.0], [99.34788908537311, 99.34796238016746, 246.3362191220955, 0.0, 0.0, 0.0], [-0.0002486900774012072, -0.0016454805121193306, -0.0026679308303384076, 91.99912857954143, 0.0, 0.0], [9.149999119086784e-06, 1.8053331593388816e-05, 1.2449998801687337e-05, 0.0, 92.74903411654795, 0.0], [-1.3946664737020077e-05, -7.493332292720249e-06, 2.3766663395034904e-06, 0.0, 0.0, 91.37718829817327]], 'compliance_tensor': [[5.0, -0.4, -1.9, 0.0, 0.0, 0.0], [-0.4, 5.0, -1.9, 0.0, -0.0, 0.0], [-1.9, -1.9, 5.6, -0.0, -0.0, -0.0], [0.0, 0.0, -0.0, 10.8, 0.0, -0.0], [0.0, -0.0, -0.0, 0.0, 10.8, -0.0], [0.0, 0.0, -0.0, -0.0, -0.0, 10.8]], 'warnings': [], 'nsites': 8}",0,86,138,0.12,0.24,213.28
184,mp-557938,HfVF6,"{'Hf': 1.0, 'V': 1.0, 'F': 6.0}",0.095435584,4.077358133,"{'G_Reuss': 21.0, 'G_VRH': 33.0, 'G_Voigt': 46.0, 'G_Voigt_Reuss_Hill': 33.0, 'K_Reuss': 75.0, 'K_VRH': 75.0, 'K_Voigt': 75.0, 'K_Voigt_Reuss_Hill': 75.0, 'elastic_anisotropy': 6.08, 'elastic_tensor': [[200.0, 13.0, 13.0, 0.0, 0.0, 0.0], [13.0, 200.0, 13.0, 0.0, 0.0, 0.0], [13.0, 13.0, 200.0, 0.0, 0.0, 0.0], [0.0, 0.0, 0.0, 14.0, 0.0, 0.0], [0.0, 0.0, 0.0, 0.0, 14.0, 0.0], [0.0, 0.0, 0.0, 0.0, 0.0, 14.0]], 'homogeneous_poisson': 0.31, 'poisson_ratio': 0.31, 'universal_anisotropy': 6.08, 'elastic_tensor_original': [[200.1404393415032, 13.122270101168777, 13.122270101168777, 0.0, 0.0, 0.0], [13.122570829194782, 200.1409166960511, 13.122570829194782, 0.0, 0.0, 0.0], [13.122521612008274, 13.122521612008274, 200.14131092404384, 0.0, 0.0, 0.0], [-7.27500186123415e-05, -5.219334668717656e-05, -1.9300004937748315e-05, 13.508903439441829, 0.0, 0.0], [0.012044889748222484, 0.03909062000091707, 0.0580986848639272, 0.0, 13.500984604082547, 0.0], [-0.012118253100326588, -0.058163744880572306, -0.03919965002881152, 0.0, 0.0, 13.500967904078271]], 'compliance_tensor': [[5.0, -0.3, -0.3, 0.0, -0.0, -0.0], [-0.3, 5.0, -0.3, -0.0, 0.0, -0.0], [-0.3, -0.3, 5.0, -0.0, -0.0, 0.0], [0.0, -0.0, -0.0, 74.1, -0.0, -0.0], [-0.0, 0.0, -0.0, -0.0, 74.1, -0.0], [-0.0, -0.0, 0.0, -0.0, -0.0, 74.1]], 'warnings': [], 'nsites': 8}",0,33,75,6.08,0.31,86.46
185,mp-567441,HfIN,"{'Hf': 1.0, 'I': 1.0, 'N': 1.0}",0.170882421,7.387807546,"{'G_Reuss': -1.0, 'G_VRH': 12.0, 'G_Voigt': 24.0, 'G_Voigt_Reuss_Hill': 12.0, 'K_Reuss': 3.0, 'K_VRH': 23.0, 'K_Voigt': 43.0, 'K_Voigt_Reuss_Hill': 23.0, 'elastic_anisotropy': -127.26, 'elastic_tensor': [[140.0, 53.0, -1.0, 0.0, 0.0, 0.0], [53.0, 140.0, -1.0, -0.0, 0.0, 0.0], [-1.0, -1.0, 3.0, 0.0, 0.0, 0.0], [0.0, -0.0, 0.0, -0.0, 0.0, 0.0], [0.0, 0.0, 0.0, 0.0, -0.0, 0.0], [0.0, 0.0, 0.0, 0.0, 0.0, 44.0]], 'homogeneous_poisson': 0.28, 'poisson_ratio': 0.28, 'universal_anisotropy': -127.26, 'elastic_tensor_original': [[139.27398245516267, 52.46740828461283, -0.097018869484367, -0.6585266887643783, 0.0, 0.0], [53.4401448054682, 141.4357704630031, -3.361322664896961, 1.4982853621468275, 0.0, 0.0], [0.37991997178669834, 0.3799200920857982, 2.9340555256346397, 0.0, 0.0, 0.0], [-0.05697556369937156, -0.08821278680173941, 0.01817410509143353, -0.5049549491200286, 0.0, 0.0], [0.0, 0.0, 0.0, 0.0, -0.14222177136865172, 0.09557806010771344], [0.005017108157815456, 0.0010536975113507967, -0.012330363995124057, -0.003065565978743143, 0.35380495816488877, 43.757301562138984]], 'compliance_tensor': [[8.3, -3.1, 1.2, 5.4, 0.0, 0.0], [-3.1, 8.3, 1.2, -5.4, 0.0, 0.0], [1.2, 1.2, 341.4, -0.0, 0.0, 0.0], [5.4, -5.4, 0.0, -3085.2, -0.0, 0.0], [0.0, 0.0, -0.0, -0.0, -3085.2, 10.8], [0.0, 0.0, 0.0, 0.0, 10.8, 22.8]], 'warnings': ['Elastic tensor has a negative eigenvalue', 'One or more K, G below 2 GPa'], 'nsites': 6}",0,12,23,-127.26,0.28,30.72
186,mp-568346,HfBrN,"{'Hf': 1.0, 'Br': 1.0, 'N': 1.0}",0.09723618,6.767895149,"{'G_Reuss': 3.0, 'G_VRH': 18.0, 'G_Voigt': 32.0, 'G_Voigt_Reuss_Hill': 18.0, 'K_Reuss': 21.0, 'K_VRH': 38.0, 'K_Voigt': 55.0, 'K_Voigt_Reuss_Hill': 38.0, 'elastic_anisotropy': 51.8, 'elastic_tensor': [[156.0, 16.0, 52.0, 0.0, 0.0, 0.0], [16.0, 22.0, 11.0, 0.0, 0.0, 0.0], [52.0, 11.0, 159.0, 0.0, 0.0, 0.0], [0.0, 0.0, 0.0, 1.0, 0.0, 0.0], [0.0, 0.0, 0.0, 0.0, 73.0, 0.0], [0.0, 0.0, 0.0, 0.0, 0.0, 1.0]], 'homogeneous_poisson': 0.3, 'poisson_ratio': 0.3, 'universal_anisotropy': 51.8, 'elastic_tensor_original': [[158.6208069593995, 52.202976326226064, 14.610633006340697, 0.0, 0.0, 0.0], [52.208466503040405, 155.55670808835137, 19.441544383619085, 0.0, 0.0, 0.0], [7.398588490847789, 12.0812000492525, 21.811734221721245, 0.0, 0.0, 0.0], [-0.07332128514274883, -0.10426782222857137, -0.07253859265104848, 1.4807156522645126, 0.0, 0.0], [0.0188182664074742, -0.0671201500746384, 0.0725425137851842, 0.0, 1.0876918936874735, 0.0], [1.986998832050846e-05, -4.514997346147834e-05, 1.3589992011813428e-05, 0.0, 0.0, 73.46826395926789]], 'compliance_tensor': [[7.6, -4.4, -2.2, 0.0, 0.0, 0.0], [-4.4, 50.0, -2.0, 0.0, 0.0, 0.0], [-2.2, -2.0, 7.2, 0.0, 0.0, 0.0], [0.0, 0.0, 0.0, 919.4, 0.0, 0.0], [0.0, 0.0, 0.0, 0.0, 13.6, 0.0], [0.0, 0.0, 0.0, 0.0, 0.0, 675.3]], 'warnings': [], 'nsites': 6}",0,18,38,51.8,0.3,46.8
187,mp-571367,Hf(CoSi)2,"{'Hf': 1.0, 'Co': 2.0, 'Si': 2.0}",0.11494683,8.748421437,"{'G_Reuss': 105.0, 'G_VRH': 106.0, 'G_Voigt': 107.0, 'G_Voigt_Reuss_Hill': 106.0, 'K_Reuss': 190.0, 'K_VRH': 190.0, 'K_Voigt': 191.0, 'K_Voigt_Reuss_Hill': 190.0, 'elastic_anisotropy': 0.09, 'elastic_tensor': [[306.0, 132.0, 128.0, 0.0, 0.0, 0.0], [132.0, 306.0, 128.0, 0.0, 0.0, 0.0], [128.0, 128.0, 327.0, 0.0, 0.0, 0.0], [0.0, 0.0, 0.0, 110.0, 0.0, 0.0], [0.0, 0.0, 0.0, 0.0, 110.0, 0.0], [0.0, 0.0, 0.0, 0.0, 0.0, 129.0]], 'homogeneous_poisson': 0.27, 'poisson_ratio': 0.27, 'universal_anisotropy': 0.09, 'elastic_tensor_original': [[305.68016936863364, 131.90098390944576, 128.4882167700024, 0.0, 0.0, 0.0], [131.90172545517459, 305.67992889379263, 128.48676113244662, 0.0, 0.0, 0.0], [128.09083814412207, 128.09083814412207, 326.65953403307753, 0.0, 0.0, 0.0], [0.00016062315448669404, 3.515986214122772e-05, 0.00011651991602324546, 110.27410555745297, 0.0, 0.0], [-0.000178986522782468, -5.687667595231381e-05, -0.0001548530919485611, 0.0, 110.27404615411261, 0.0], [8.85999824086292e-05, 0.0001807931535198032, 0.00010285655686509532, 0.0, 0.0, 128.86755507147393]], 'compliance_tensor': [[4.4, -1.4, -1.2, 0.0, -0.0, 0.0], [-1.4, 4.4, -1.2, -0.0, 0.0, -0.0], [-1.2, -1.2, 4.0, 0.0, -0.0, -0.0], [0.0, -0.0, 0.0, 9.1, -0.0, 0.0], [-0.0, 0.0, -0.0, -0.0, 9.1, -0.0], [0.0, -0.0, -0.0, 0.0, -0.0, 7.8]], 'warnings': [], 'nsites': 5}",0,106,190,0.09,0.27,269.24
188,mp-7032,HfMoP,"{'Hf': 1.0, 'Mo': 1.0, 'P': 1.0}",0.11021265,10.7091182,"{'G_Reuss': 120.0, 'G_VRH': 121.0, 'G_Voigt': 122.0, 'G_Voigt_Reuss_Hill': 121.0, 'K_Reuss': 207.0, 'K_VRH': 208.0, 'K_Voigt': 208.0, 'K_Voigt_Reuss_Hill': 208.0, 'elastic_anisotropy': 0.06, 'elastic_tensor': [[360.0, 141.0, 129.0, 0.0, 0.0, 0.0], [141.0, 360.0, 129.0, 0.0, 0.0, 0.0], [129.0, 129.0, 350.0, 0.0, 0.0, 0.0], [0.0, 0.0, 0.0, 139.0, 0.0, 0.0], [0.0, 0.0, 0.0, 0.0, 139.0, 0.0], [0.0, 0.0, 0.0, 0.0, 0.0, 109.0]], 'homogeneous_poisson': 0.26, 'poisson_ratio': 0.26, 'universal_anisotropy': 0.06, 'elastic_tensor_original': [[360.0138817381401, 140.95165106933092, 129.26149030582508, 0.0, 0.0, 0.0], [140.830396024116, 359.7435864346802, 129.18167198519347, 0.0, 0.0, 0.0], [129.20110092573967, 129.2011556635147, 350.3261981168678, 0.0, 0.0, 0.0], [0.0006653662050538469, 0.0005862195932985384, 0.0005296596325380016, 138.56717058927566, 0.0, 0.0], [1.205998224047324e-05, 1.2019982299357735e-05, 1.928663826457843e-05, 0.0, 138.5321933733604, 0.0], [1.1260008387488186e-05, -2.6283365626958152e-05, 1.0573333874749705e-05, 0.0, 0.0, 109.13670919120189]], 'compliance_tensor': [[3.5, -1.1, -0.9, 0.0, 0.0, 0.0], [-1.1, 3.5, -0.9, -0.0, 0.0, 0.0], [-0.9, -0.9, 3.5, -0.0, -0.0, -0.0], [0.0, -0.0, -0.0, 7.2, 0.0, -0.0], [0.0, 0.0, -0.0, 0.0, 7.2, 0.0], [0.0, 0.0, -0.0, -0.0, -0.0, 9.1]], 'warnings': [], 'nsites': 9}",0,121,208,0.06,0.26,304.92
189,mp-754128,Ba3Hf2O7,"{'Ba': 3.0, 'Hf': 2.0, 'O': 7.0}",0.542509516,7.531869925,"{'G_Reuss': 69.0, 'G_VRH': 71.0, 'G_Voigt': 72.0, 'G_Voigt_Reuss_Hill': 71.0, 'K_Reuss': 124.0, 'K_VRH': 124.0, 'K_Voigt': 124.0, 'K_Voigt_Reuss_Hill': 124.0, 'elastic_anisotropy': 0.23, 'elastic_tensor': [[254.0, 64.0, 68.0, 0.0, 0.0, 0.0], [64.0, 254.0, 68.0, 0.0, 0.0, 0.0], [68.0, 68.0, 212.0, 0.0, 0.0, 0.0], [0.0, 0.0, 0.0, 56.0, 0.0, 0.0], [0.0, 0.0, 0.0, 0.0, 56.0, 0.0], [0.0, 0.0, 0.0, 0.0, 0.0, 76.0]], 'homogeneous_poisson': 0.26, 'poisson_ratio': 0.26, 'universal_anisotropy': 0.23, 'elastic_tensor_original': [[254.46325909102552, 64.10418751785824, 67.93082682580032, 0.0, 0.0, 0.0], [64.10398524604143, 254.46305218109762, 67.93094564897126, 0.0, 0.0, 0.0], [67.35366024183216, 67.35366024183216, 211.89142464241357, 0.0, 0.0, 0.0], [0.0004337382610586544, 0.0005328820052815004, 0.0008724333331250987, 56.03367806522077, 0.0, 0.0], [-0.010077987151033084, -0.00857425447629079, -0.007533727029967372, 0.0, 56.02951300184031, 0.0], [2.2166938939850634e-06, -3.233221483798865e-07, -1.4733393354079336e-05, 0.0, 0.0, 76.39375837544989]], 'compliance_tensor': [[4.4, -0.8, -1.2, 0.0, 0.0, 0.0], [-0.8, 4.4, -1.2, 0.0, 0.0, -0.0], [-1.2, -1.2, 5.5, -0.0, 0.0, 0.0], [0.0, 0.0, -0.0, 17.8, 0.0, -0.0], [0.0, 0.0, 0.0, 0.0, 17.8, -0.0], [0.0, -0.0, 0.0, -0.0, -0.0, 13.1]], 'warnings': [], 'nsites': 12}",0,71,124,0.23,0.26,178.92
190,mp-754363,Ba2HfO4,"{'Ba': 2.0, 'Hf': 1.0, 'O': 4.0}",0.532396961,7.165757046,"{'G_Reuss': 58.0, 'G_VRH': 60.0, 'G_Voigt': 61.0, 'G_Voigt_Reuss_Hill': 60.0, 'K_Reuss': 110.0, 'K_VRH': 110.0, 'K_Voigt': 110.0, 'K_Voigt_Reuss_Hill': 110.0, 'elastic_anisotropy': 0.28, 'elastic_tensor': [[223.0, 55.0, 63.0, 0.0, 0.0, 0.0], [55.0, 223.0, 63.0, 0.0, 0.0, 0.0], [63.0, 63.0, 184.0, 0.0, 0.0, 0.0], [0.0, 0.0, 0.0, 46.0, 0.0, 0.0], [0.0, 0.0, 0.0, 0.0, 46.0, 0.0], [0.0, 0.0, 0.0, 0.0, 0.0, 65.0]], 'homogeneous_poisson': 0.27, 'poisson_ratio': 0.27, 'universal_anisotropy': 0.28, 'elastic_tensor_original': [[222.64958951617305, 55.16072687971004, 62.6442580432367, 0.0, 0.0, 0.0], [55.16162549017767, 222.65054255278832, 62.644542365104684, 0.0, 0.0, 0.0], [63.3432017848308, 63.3432017848308, 183.9182552160351, 0.0, 0.0, 0.0], [0.00021594929597311248, 0.00022513924621853266, 0.0002638025162918366, 46.23410989385506, 0.0, 0.0], [-0.000184619650977199, -0.00016539635964888698, -0.00021434650852252392, 0.0, 46.23445244938058, 0.0], [0.00011872613445050841, 0.00016463925984244073, 0.00017771917069368535, 0.0, 0.0, 65.05319709620682]], 'compliance_tensor': [[5.1, -0.9, -1.5, -0.0, -0.0, -0.0], [-0.9, 5.1, -1.5, -0.0, -0.0, -0.0], [-1.5, -1.5, 6.4, 0.0, 0.0, 0.0], [-0.0, -0.0, 0.0, 21.6, 0.0, 0.0], [-0.0, -0.0, 0.0, 0.0, 21.6, 0.0], [-0.0, -0.0, 0.0, 0.0, 0.0, 15.4]], 'warnings': [], 'nsites': 7}",0,60,110,0.28,0.27,152.4
191,mp-7916,HfSiS,"{'Hf': 1.0, 'Si': 1.0, 'S': 1.0}",0.121311998,7.898134801,"{'G_Reuss': 91.0, 'G_VRH': 92.0, 'G_Voigt': 94.0, 'G_Voigt_Reuss_Hill': 92.0, 'K_Reuss': 135.0, 'K_VRH': 135.0, 'K_Voigt': 135.0, 'K_Voigt_Reuss_Hill': 135.0, 'elastic_anisotropy': 0.18, 'elastic_tensor': [[257.0, 76.0, 85.0, 0.0, 0.0, 0.0], [76.0, 257.0, 85.0, 0.0, 0.0, 0.0], [85.0, 85.0, 214.0, 0.0, 0.0, 0.0], [0.0, 0.0, 0.0, 91.0, 0.0, 0.0], [0.0, 0.0, 0.0, 0.0, 91.0, 0.0], [0.0, 0.0, 0.0, 0.0, 0.0, 126.0]], 'homogeneous_poisson': 0.22, 'poisson_ratio': 0.22, 'universal_anisotropy': 0.18, 'elastic_tensor_original': [[256.91108409902955, 75.95985622155283, 85.04082922981802, 0.0, 0.0, 0.0], [75.95948556438604, 256.91117781039145, 85.04027846690568, 0.0, 0.0, 0.0], [84.40141837484332, 84.40141837484332, 213.9528087329438, 0.0, 0.0, 0.0], [-8.337662431333243e-05, -1.4779992491260074e-05, -7.5119961841953e-05, 91.4347501711018, 0.0, 0.0], [0.00012463660335634236, 3.552998195333984e-05, 9.91266163137307e-05, 0.0, 91.4349049810232, 0.0], [-9.256661075502483e-06, 2.6666650593220333e-06, 8.503994865677072e-05, 0.0, 0.0, 125.61127664466473]], 'compliance_tensor': [[4.6, -0.9, -1.5, 0.0, 0.0, 0.0], [-0.9, 4.6, -1.5, 0.0, -0.0, -0.0], [-1.5, -1.5, 5.9, 0.0, -0.0, -0.0], [0.0, 0.0, 0.0, 10.9, 0.0, 0.0], [0.0, -0.0, -0.0, 0.0, 10.9, 0.0], [0.0, -0.0, -0.0, 0.0, 0.0, 8.0]], 'warnings': [], 'nsites': 6}",0,92,135,0.18,0.22,224.48
192,mp-7917,HfGeSe,"{'Hf': 1.0, 'Ge': 1.0, 'Se': 1.0}",0.154490442,9.575608495,"{'G_Reuss': 73.0, 'G_VRH': 74.0, 'G_Voigt': 75.0, 'G_Voigt_Reuss_Hill': 74.0, 'K_Reuss': 112.0, 'K_VRH': 112.0, 'K_Voigt': 112.0, 'K_Voigt_Reuss_Hill': 112.0, 'elastic_anisotropy': 0.18, 'elastic_tensor': [[200.0, 70.0, 72.0, 0.0, 0.0, 0.0], [70.0, 200.0, 72.0, 0.0, 0.0, 0.0], [72.0, 72.0, 182.0, 0.0, 0.0, 0.0], [0.0, 0.0, 0.0, 76.0, 0.0, 0.0], [0.0, 0.0, 0.0, 0.0, 76.0, 0.0], [0.0, 0.0, 0.0, 0.0, 0.0, 101.0]], 'homogeneous_poisson': 0.23, 'poisson_ratio': 0.23, 'universal_anisotropy': 0.18, 'elastic_tensor_original': [[199.5898220668829, 69.57070776409718, 70.67503521046117, 0.0, 0.0, 0.0], [69.57098848198156, 199.58985776121787, 70.6753333021603, 0.0, 0.0, 0.0], [72.53705186395813, 72.53705186395813, 182.3927818163799, 0.0, 0.0, 0.0], [-0.00011826691693667714, -4.479009478246183e-05, 0.00013271694751514968, 75.87346050933436, 0.0, 0.0], [0.00011481357629362457, -0.0003032706417650128, 0.0002717439083829617, 0.0, 75.87335007910067, 0.0], [-5.3593445288166684e-05, -0.00018250038124949938, -2.1186710926093585e-05, 0.0, 0.0, 101.11801979907176]], 'compliance_tensor': [[6.2, -1.5, -1.8, 0.0, 0.0, 0.0], [-1.5, 6.2, -1.8, 0.0, 0.0, -0.0], [-1.8, -1.8, 6.9, 0.0, -0.0, 0.0], [0.0, 0.0, 0.0, 13.2, 0.0, 0.0], [0.0, 0.0, -0.0, 0.0, 13.2, -0.0], [0.0, -0.0, 0.0, 0.0, -0.0, 9.9]], 'warnings': [], 'nsites': 6}",0,74,112,0.18,0.23,182.04
193,mp-7918,HfGeS,"{'Hf': 1.0, 'Ge': 1.0, 'S': 1.0}",0.139338715,8.927945661,"{'G_Reuss': 81.0, 'G_VRH': 82.0, 'G_Voigt': 83.0, 'G_Voigt_Reuss_Hill': 82.0, 'K_Reuss': 127.0, 'K_VRH': 127.0, 'K_Voigt': 127.0, 'K_Voigt_Reuss_Hill': 127.0, 'elastic_anisotropy': 0.12, 'elastic_tensor': [[227.0, 78.0, 72.0, 0.0, 0.0, 0.0], [78.0, 227.0, 72.0, 0.0, 0.0, 0.0], [72.0, 72.0, 249.0, 0.0, 0.0, 0.0], [0.0, 0.0, 0.0, 73.0, 0.0, 0.0], [0.0, 0.0, 0.0, 0.0, 73.0, 0.0], [0.0, 0.0, 0.0, 0.0, 0.0, 109.0]], 'homogeneous_poisson': 0.24, 'poisson_ratio': 0.24, 'universal_anisotropy': 0.12, 'elastic_tensor_original': [[227.21745555754407, 78.39116615643924, 71.34154688159636, 0.0, 0.0, 0.0], [78.39230368115923, 227.21820390302645, 71.34219669004008, 0.0, 0.0, 0.0], [72.07541666140723, 72.07541666140723, 248.60541398979058, 0.0, 0.0, 0.0], [-0.00011337352214752354, -1.6436945176786034e-05, -5.814350131048305e-05, 72.68192030153882, 0.0, 0.0], [1.588034170930137e-05, -1.238628076279943e-05, 0.00011964029838690194, 0.0, 72.68196659847142, 0.0], [6.064308056799457e-05, 0.000129503263741086, -2.665671312672925e-05, 0.0, 0.0, 108.65232285688172]], 'compliance_tensor': [[5.3, -1.5, -1.1, 0.0, 0.0, 0.0], [-1.5, 5.3, -1.1, -0.0, 0.0, -0.0], [-1.1, -1.1, 4.7, -0.0, 0.0, 0.0], [0.0, -0.0, -0.0, 13.8, 0.0, 0.0], [0.0, 0.0, 0.0, 0.0, 13.8, 0.0], [0.0, -0.0, 0.0, 0.0, 0.0, 9.2]], 'warnings': [], 'nsites': 6}",0,82,127,0.12,0.24,203.36
194,mp-862684,LiHf2Os,"{'Li': 1.0, 'Hf': 2.0, 'Os': 1.0}",0.135668418,13.1753175,"{'G_Reuss': 54.0, 'G_VRH': 54.0, 'G_Voigt': 54.0, 'G_Voigt_Reuss_Hill': 54.0, 'K_Reuss': 147.0, 'K_VRH': 147.0, 'K_Voigt': 147.0, 'K_Voigt_Reuss_Hill': 147.0, 'elastic_anisotropy': 0.05, 'elastic_tensor': [[211.0, 115.0, 115.0, 0.0, 0.0, 0.0], [115.0, 211.0, 115.0, 0.0, 0.0, 0.0], [115.0, 115.0, 211.0, 0.0, 0.0, 0.0], [0.0, 0.0, 0.0, 58.0, 0.0, 0.0], [0.0, 0.0, 0.0, 0.0, 58.0, 0.0], [0.0, 0.0, 0.0, 0.0, 0.0, 58.0]], 'homogeneous_poisson': 0.34, 'poisson_ratio': 0.34, 'universal_anisotropy': 0.05, 'elastic_tensor_original': [[210.71071445556754, 115.14338754534234, 115.14342276492859, 0.0, 0.0, 0.0], [115.14488813375681, 210.71168641637675, 115.14488813375681, 0.0, 0.0, 0.0], [115.14218713662841, 115.14215191692035, 210.70973902340162, 0.0, 0.0, 0.0], [-0.0002997955623501139, -0.00026185720977561793, -0.0002890407475555887, 58.35659028672434, 0.0, 0.0], [-0.0003238984380834409, -0.000318538332584664, -0.0002680313387175626, 0.0, 58.35782084095706, 0.0], [-0.0003498285566555149, -0.0003578434854960632, -0.00036563208335306144, 0.0, 0.0, 58.35787430372965]], 'compliance_tensor': [[7.7, -2.7, -2.7, 0.0, 0.0, -0.0], [-2.7, 7.7, -2.7, -0.0, -0.0, -0.0], [-2.7, -2.7, 7.7, -0.0, 0.0, 0.0], [0.0, -0.0, -0.0, 17.1, -0.0, 0.0], [0.0, -0.0, 0.0, -0.0, 17.1, -0.0], [-0.0, -0.0, 0.0, 0.0, -0.0, 17.1]], 'warnings': [], 'nsites': 4}",0,54,147,0.05,0.34,144.72
195,mp-864671,HfAlRh2,"{'Hf': 1.0, 'Al': 1.0, 'Rh': 2.0}",0.116593965,10.87105434,"{'G_Reuss': 256.0, 'G_VRH': 131.0, 'G_Voigt': 6.0, 'G_Voigt_Reuss_Hill': 131.0, 'K_Reuss': 187.0, 'K_VRH': 187.0, 'K_Voigt': 187.0, 'K_Voigt_Reuss_Hill': 187.0, 'elastic_anisotropy': -4.88, 'elastic_tensor': [[61.0, 251.0, 251.0, 0.0, 0.0, 0.0], [251.0, 61.0, 251.0, 0.0, 0.0, 0.0], [251.0, 251.0, 61.0, 0.0, 0.0, 0.0], [0.0, 0.0, 0.0, 74.0, 0.0, 0.0], [0.0, 0.0, 0.0, 0.0, 74.0, 0.0], [0.0, 0.0, 0.0, 0.0, 0.0, 74.0]], 'homogeneous_poisson': 0.22, 'poisson_ratio': 0.22, 'universal_anisotropy': -4.88, 'elastic_tensor_original': [[60.551431409616775, 250.82933757814752, 250.82933757814752, 0.0, 0.0, 0.0], [250.9071941210848, 60.628712358019094, 250.90673727094935, 0.00016684007346848625, 0.0002866385478411109, 0.00018565272314931643], [250.91473266209138, 250.91391099019063, 60.63971812015252, 0.0005256370029591865, 0.0005350333529058152, 0.0002763444574537214], [0.0006736801381141916, 0.0010654235517598106, 0.00043535675592006875, 74.04202361618454, 0.0, 0.0], [-0.0005797301188489275, -0.00011137668949921509, -0.0004948901014587981, 0.0, 74.04196744617302, 0.0], [-0.0005516501130927477, -0.0005193934398156688, -0.0004381467564896751, 0.0, 0.0, 74.04233331958133]], 'compliance_tensor': [[-2.9, 2.3, 2.3, 0.0, -0.0, 0.0], [2.3, -2.9, 2.3, 0.0, 0.0, -0.0], [2.3, 2.3, -2.9, -0.0, 0.0, 0.0], [0.0, 0.0, -0.0, 13.5, 0.0, 0.0], [-0.0, 0.0, 0.0, 0.0, 13.5, 0.0], [0.0, -0.0, 0.0, 0.0, 0.0, 13.5]], 'warnings': ['Elastic tensor has a negative eigenvalue', 'c11 and c12 are within 5% or c12 is greater than c11', 'c11 and c13 are within 5% or c13 is greater than c11', 'c11 and c23 are within 5% or c23 is greater than c11'], 'nsites': 4}",0,131,187,-4.88,0.22,319.64