,mp_id,Formula,Composition,IPF,Density,Elastic_Tensor,E_above_Hull,G_VRH,K_VRH,Elastic_Anisotropy,poisson_ratio,Y_Modulus
92,mp-1018709,Hf2GaSb3,"{'Hf': 2.0, 'Ga': 1.0, 'Sb': 3.0}",0.105231515,9.767269922,"{'G_Reuss': 63.0, 'G_VRH': 64.0, 'G_Voigt': 65.0, 'G_Voigt_Reuss_Hill': 64.0, 'K_Reuss': 88.0, 'K_VRH': 88.0, 'K_Voigt': 88.0, 'K_Voigt_Reuss_Hill': 88.0, 'elastic_anisotropy': 0.18, 'elastic_tensor': [[158.0, 49.0, 49.0, 0.0, 0.0, 0.0], [49.0, 158.0, 49.0, 0.0, 0.0, 0.0], [49.0, 49.0, 184.0, 0.0, 0.0, 0.0], [0.0, 0.0, 0.0, 58.0, 0.0, 0.0], [0.0, 0.0, 0.0, 0.0, 58.0, 0.0], [0.0, 0.0, 0.0, 0.0, 0.0, 91.0]], 'homogeneous_poisson': 0.21, 'poisson_ratio': 0.21, 'universal_anisotropy': 0.18, 'elastic_tensor_original': [[157.59774064356864, 49.14457799867374, 54.795405276536584, 0.0, 0.0, 0.0], [49.14457799867374, 157.59774064356864, 54.795405276536584, 0.0, 0.0, 0.0], [44.13538309067547, 44.13538309067547, 184.1974163274253, 0.0, 0.0, 0.0], [0.0, 0.0, 0.0, 58.42888504808823, 0.0, 0.0], [0.0, 0.0, 0.0, 0.0, 58.42888504808823, 0.0], [0.9144081402976617, -0.9144081402976619, 0.0, 0.0, 0.0, 91.435442777109]], 'compliance_tensor': [[7.4, -1.8, -1.5, 0.0, 0.0, 0.0], [-1.8, 7.4, -1.5, 0.0, 0.0, 0.0], [-1.5, -1.5, 6.2, 0.0, 0.0, 0.0], [0.0, 0.0, 0.0, 17.1, 0.0, 0.0], [0.0, 0.0, 0.0, 0.0, 17.1, 0.0], [0.0, 0.0, 0.0, 0.0, 0.0, 10.9]], 'warnings': [], 'nsites': 6}",0,64,88,0.18,0.21,154.88
93,mp-1025167,Hf(VGa2)2,"{'Hf': 1.0, 'V': 2.0, 'Ga': 4.0}",0.127927994,8.568621628,"{'G_Reuss': 88.0, 'G_VRH': 91.0, 'G_Voigt': 94.0, 'G_Voigt_Reuss_Hill': 91.0, 'K_Reuss': 130.0, 'K_VRH': 131.0, 'K_Voigt': 131.0, 'K_Voigt_Reuss_Hill': 131.0, 'elastic_anisotropy': 0.37, 'elastic_tensor': [[231.0, 59.0, 59.0, 0.0, 0.0, 0.0], [59.0, 240.0, 117.0, 0.0, 0.0, 0.0], [59.0, 117.0, 240.0, 0.0, 0.0, 0.0], [0.0, 0.0, 0.0, 139.0, 0.0, 0.0], [0.0, 0.0, 0.0, 0.0, 87.0, 0.0], [0.0, 0.0, 0.0, 0.0, 0.0, 87.0]], 'homogeneous_poisson': 0.22, 'poisson_ratio': 0.22, 'universal_anisotropy': 0.37, 'elastic_tensor_original': [[230.83905559135658, 70.04732570643068, 70.04732570643068, 0.0, 2.159991825527428e-05, 0.0], [48.819041386124724, 240.43986000275711, 117.01201893643544, 0.0, 1.820019780749785e-05, 0.0], [48.819041386127765, 117.01201893643544, 240.43986000275711, 0.0, 3.75942564001571e-05, 9.535369643372648e-08], [0.0, 1.3860309703359543, -1.386030970335959, 138.5963241217686, -1.3599483952519152e-07, 2.158075720194064e-05], [2.7082358758767583e-05, 0.0, 0.0, 0.0, 86.60471793285599, 0.0], [0.0, 0.0, 0.0, 0.0, 0.0, 86.60471793285598]], 'compliance_tensor': [[4.7, -0.8, -0.8, -0.0, -0.0, -0.0], [-0.8, 5.6, -2.5, 0.0, 0.0, -0.0], [-0.8, -2.5, 5.6, 0.0, -0.0, 0.0], [-0.0, 0.0, 0.0, 7.2, -0.0, -0.0], [-0.0, 0.0, -0.0, -0.0, 11.5, 0.0], [-0.0, -0.0, 0.0, -0.0, 0.0, 11.5]], 'warnings': [], 'nsites': 7}",0,91,131,0.37,0.22,222.04
94,mp-1025193,HfGa5Co,"{'Hf': 1.0, 'Ga': 5.0, 'Co': 1.0}",0.120119673,8.553411914,"{'G_Reuss': 46.0, 'G_VRH': 47.0, 'G_Voigt': 47.0, 'G_Voigt_Reuss_Hill': 47.0, 'K_Reuss': 87.0, 'K_VRH': 87.0, 'K_Voigt': 88.0, 'K_Voigt_Reuss_Hill': 87.0, 'elastic_anisotropy': 0.16, 'elastic_tensor': [[162.0, 33.0, 59.0, 0.0, 0.0, 0.0], [33.0, 162.0, 59.0, 0.0, 0.0, 0.0], [59.0, 59.0, 164.0, 0.0, 0.0, 0.0], [0.0, 0.0, 0.0, 41.0, 0.0, 0.0], [0.0, 0.0, 0.0, 0.0, 41.0, 0.0], [0.0, 0.0, 0.0, 0.0, 0.0, 42.0]], 'homogeneous_poisson': 0.27, 'poisson_ratio': 0.27, 'universal_anisotropy': 0.16, 'elastic_tensor_original': [[161.82540740147888, 33.158552730359965, 57.599960612346315, 0.0, 0.0, 0.0], [33.158552730359965, 161.82540740147888, 57.599960612346294, 0.0, 0.0, 0.0], [60.5727373495771, 60.5727373495771, 163.60606983000844, 0.0, 0.0, 0.0], [0.0, 0.0, 0.0, 41.411662631470335, 0.0, 0.0], [0.0, 0.0, 0.0, 0.0, 41.41166263147032, 0.0], [0.42340380967363206, -0.42340380967363206, 0.0, 0.0, 0.0, 42.33793028496076]], 'compliance_tensor': [[7.2, -0.6, -2.4, 0.0, 0.0, 0.0], [-0.6, 7.2, -2.4, 0.0, 0.0, -0.0], [-2.4, -2.4, 7.8, 0.0, 0.0, 0.0], [0.0, 0.0, 0.0, 24.1, 0.0, 0.0], [0.0, 0.0, 0.0, 0.0, 24.1, 0.0], [0.0, -0.0, -0.0, 0.0, 0.0, 23.6]], 'warnings': [], 'nsites': 7}",0,47,87,0.16,0.27,119.38
95,mp-1029330,Hf2SeN2,"{'Hf': 2.0, 'Se': 1.0, 'N': 2.0}",0.153350472,10.18628612,"{'G_Reuss': 80.0, 'G_VRH': 82.0, 'G_Voigt': 84.0, 'G_Voigt_Reuss_Hill': 82.0, 'K_Reuss': 159.0, 'K_VRH': 159.0, 'K_Voigt': 160.0, 'K_Voigt_Reuss_Hill': 159.0, 'elastic_anisotropy': 0.27, 'elastic_tensor': [[274.0, 134.0, 90.0, 16.0, 0.0, 0.0], [134.0, 274.0, 90.0, -16.0, 0.0, 0.0], [90.0, 90.0, 262.0, 0.0, 0.0, 0.0], [16.0, -16.0, 0.0, 91.0, 0.0, 0.0], [0.0, 0.0, 0.0, 0.0, 91.0, 16.0], [0.0, 0.0, 0.0, 0.0, 16.0, 70.0]], 'homogeneous_poisson': 0.28, 'poisson_ratio': 0.28, 'universal_anisotropy': 0.27, 'elastic_tensor_original': [[273.69197387848004, 133.99080241472058, 89.58017330158482, -16.509760739677, 0.0, 0.0], [134.27061228643487, 274.2630223614843, 89.77196127377196, 16.32701553595539, 0.0, 0.0], [90.11439135060887, 90.11439375037726, 261.8750934334256, 0.0, 0.0, 0.0], [-15.4153072556055, 14.811715952665818, 0.0036051483252576384, 91.33390348154505, 0.0, 0.0], [2.439658903042968e-05, 7.516642746889793e-06, 2.9136573947077057e-05, 3.3766559212535452e-06, 91.50389595098927, -15.262789633753949], [5.666956069177738e-07, 1.257001714353271e-05, -2.1219927733033514e-05, -5.823339950781965e-06, -15.38538517252135, 70.58387848748106]], 'compliance_tensor': [[5.1, -2.3, -1.0, -1.3, -0.0, -0.0], [-2.3, 5.1, -1.0, 1.3, 0.0, -0.0], [-1.0, -1.0, 4.5, 0.0, -0.0, 0.0], [-1.3, 1.3, 0.0, 11.4, -0.0, 0.0], [-0.0, 0.0, -0.0, -0.0, 11.4, -2.5], [-0.0, -0.0, 0.0, 0.0, -2.5, 14.8]], 'warnings': [], 'nsites': 5}",0,82,159,0.27,0.28,209.92
96,mp-1029359,CaHfN2,"{'Ca': 1.0, 'Hf': 1.0, 'N': 2.0}",0.206636486,7.781490043,"{'G_Reuss': 130.0, 'G_VRH': 131.0, 'G_Voigt': 132.0, 'G_Voigt_Reuss_Hill': 131.0, 'K_Reuss': 170.0, 'K_VRH': 171.0, 'K_Voigt': 171.0, 'K_Voigt_Reuss_Hill': 171.0, 'elastic_anisotropy': 0.09, 'elastic_tensor': [[375.0, 85.0, 68.0, 3.0, 0.0, 0.0], [85.0, 375.0, 68.0, -3.0, 0.0, 0.0], [68.0, 68.0, 346.0, 0.0, 0.0, 0.0], [3.0, -3.0, 0.0, 112.0, 0.0, 0.0], [0.0, 0.0, 0.0, 0.0, 112.0, 3.0], [0.0, 0.0, 0.0, 0.0, 3.0, 145.0]], 'homogeneous_poisson': 0.19, 'poisson_ratio': 0.19, 'universal_anisotropy': 0.09, 'elastic_tensor_original': [[374.886814720841, 83.58559023869874, 69.43260370383987, -3.8031016990255466, 0.0, 0.0], [85.32384682778593, 375.41126022274847, 67.53516755463329, 3.9133939344124054, 0.0, 0.0], [67.78953372076134, 67.78950999606482, 345.84861804786027, 0.0, 0.0, 0.0], [-5.298297339973747, -1.264852789041597, -8.384587344652282, 109.51046541002418, 0.0, 0.0], [-8.123343485160077e-06, 1.0750013437654991e-05, 4.766672626233561e-06, 0.00011134013916736878, 113.66215279746353, -3.8400247431313472], [8.763343462069987e-06, 4.2533382490031905e-06, -1.0583345566150344e-05, -1.3996682844354599e-05, -3.1636279066631277, 145.06270709665438]], 'compliance_tensor': [[2.9, -0.6, -0.5, -0.1, -0.0, -0.0], [-0.6, 2.9, -0.5, 0.1, 0.0, -0.0], [-0.5, -0.5, 3.1, -0.0, -0.0, 0.0], [-0.1, 0.1, -0.0, 9.0, -0.0, 0.0], [-0.0, 0.0, -0.0, -0.0, 9.0, -0.2], [-0.0, -0.0, 0.0, 0.0, -0.2, 6.9]], 'warnings': [], 'nsites': 4}",0,131,171,0.09,0.19,311.78
97,mp-1029730,Ca4HfN4,"{'Ca': 4.0, 'Hf': 1.0, 'N': 4.0}",0.205549317,4.26663835,"{'G_Reuss': 39.0, 'G_VRH': 42.0, 'G_Voigt': 44.0, 'G_Voigt_Reuss_Hill': 42.0, 'K_Reuss': 88.0, 'K_VRH': 88.0, 'K_Voigt': 89.0, 'K_Voigt_Reuss_Hill': 88.0, 'elastic_anisotropy': 0.65, 'elastic_tensor': [[157.0, 51.0, 61.0, -11.0, 5.0, 5.0], [51.0, 165.0, 50.0, -2.0, -1.0, 7.0], [61.0, 50.0, 156.0, 5.0, -9.0, 4.0], [-11.0, -2.0, 5.0, 47.0, 1.0, 2.0], [5.0, -1.0, -9.0, 1.0, 39.0, -9.0], [5.0, 7.0, 4.0, 2.0, -9.0, 30.0]], 'homogeneous_poisson': 0.3, 'poisson_ratio': 0.3, 'universal_anisotropy': 0.65, 'elastic_tensor_original': [[155.8871748968926, 50.14913354807147, 60.41453920527912, -4.4362759800389355, -8.956687082087171, -5.022210840543593], [49.90951126958359, 166.19124645665767, 50.322954354385665, -5.123775848951257, -1.4705710959348393, 2.154158909730807], [60.80987373159421, 50.85307007764786, 156.2450631883359, -6.192207464613381, 5.327224265592387, 10.946780546905295], [-4.596812431555973, -5.316639126785576, -6.770244935459409, 30.061367347595986, 9.138519550260142, 1.84657963900352], [-9.612627862308381, -1.5204870127579806, 5.827453529417134, 9.412682745437836, 39.16838268704489, -0.35594232116445096], [-5.295933833787464, 1.4887216297208445, 11.177590582631407, 1.8669534301573838, -0.3827049882806068, 46.625792792315416]], 'compliance_tensor': [[8.3, -1.6, -2.9, 2.3, -2.1, -1.5], [-1.6, 7.1, -1.6, 0.2, -0.3, -1.3], [-2.9, -1.6, 8.3, -1.8, 2.4, 0.6], [2.3, 0.2, -1.8, 22.4, -1.6, -2.5], [-2.1, -0.3, 2.4, -1.6, 28.5, 9.1], [-1.5, -1.3, 0.6, -2.5, 9.1, 36.8]], 'warnings': [], 'nsites': 18}",0,42,88,0.65,0.3,109.2
98,mp-10322,BaHfN2,"{'Ba': 1.0, 'Hf': 1.0, 'N': 2.0}",0.253405791,7.810629749,"{'G_Reuss': 39.0, 'G_VRH': 44.0, 'G_Voigt': 49.0, 'G_Voigt_Reuss_Hill': 44.0, 'K_Reuss': 101.0, 'K_VRH': 104.0, 'K_Voigt': 107.0, 'K_Voigt_Reuss_Hill': 104.0, 'elastic_anisotropy': 1.34, 'elastic_tensor': [[166.0, 115.0, 69.0, 0.0, 0.0, 0.0], [115.0, 166.0, 69.0, 0.0, 0.0, 0.0], [69.0, 69.0, 129.0, 0.0, 0.0, 0.0], [0.0, 0.0, 0.0, 36.0, 0.0, 0.0], [0.0, 0.0, 0.0, 0.0, 36.0, 0.0], [0.0, 0.0, 0.0, 0.0, 0.0, 103.0]], 'homogeneous_poisson': 0.32, 'poisson_ratio': 0.32, 'universal_anisotropy': 1.34, 'elastic_tensor_original': [[165.74154985115217, 115.09195205944265, 67.67895456176043, 0.0, 0.0, 0.0], [115.09815789771173, 165.72969259760097, 67.66942959983724, 0.0, 0.0, 0.0], [69.68919894254033, 69.68919894254033, 128.6700255823278, 0.0, 0.0, 0.0], [0.0019866743482355592, 8.744633681023948e-05, 0.0005980289329465939, 36.25862902014394, 0.0, 0.0], [-0.0006400905026477874, 0.009929858957162129, 0.008046540468355018, 0.0, 36.257573649216766, 0.0], [-0.00026833310349168494, -0.000861008980927302, -0.0012168322226480787, 0.0, 0.0, 102.67151321191619]], 'compliance_tensor': [[12.3, -7.5, -2.6, 0.0, -0.0, 0.0], [-7.5, 12.3, -2.6, 0.0, -0.0, -0.0], [-2.6, -2.6, 10.5, 0.0, 0.0, 0.0], [0.0, 0.0, 0.0, 27.6, 0.0, 0.0], [-0.0, -0.0, 0.0, 0.0, 27.6, 0.0], [0.0, -0.0, 0.0, 0.0, 0.0, 9.7]], 'warnings': [], 'nsites': 8}",0,44,104,1.34,0.32,116.16
99,mp-12533,La2Hf2O7,"{'La': 2.0, 'Hf': 2.0, 'O': 7.0}",0.489684691,7.857130848,"{'G_Reuss': 89.0, 'G_VRH': 89.0, 'G_Voigt': 89.0, 'G_Voigt_Reuss_Hill': 89.0, 'K_Reuss': 165.0, 'K_VRH': 165.0, 'K_Voigt': 165.0, 'K_Voigt_Reuss_Hill': 165.0, 'elastic_anisotropy': 0.01, 'elastic_tensor': [[277.0, 109.0, 109.0, 0.0, 0.0, 0.0], [109.0, 277.0, 109.0, 0.0, 0.0, 0.0], [109.0, 109.0, 277.0, 0.0, 0.0, 0.0], [0.0, 0.0, 0.0, 93.0, 0.0, 0.0], [0.0, 0.0, 0.0, 0.0, 93.0, 0.0], [0.0, 0.0, 0.0, 0.0, 0.0, 93.0]], 'homogeneous_poisson': 0.27, 'poisson_ratio': 0.27, 'universal_anisotropy': 0.01, 'elastic_tensor_original': [[276.7212402785156, 108.75424712377624, 108.75424712377624, 0.0, 0.0, 0.0], [108.75601466256477, 276.72431206612214, 108.75601466256477, 0.0, 0.0, 0.0], [108.96428058256936, 108.96428058256936, 276.91642183731074, 0.0, 0.0, 0.0], [-0.026042941058291733, -0.015673456624702806, -0.012706767263583989, 92.89967805728959, 0.0, 0.0], [0.0163022431559628, 0.015895583243536095, 0.016956476348404814, 0.0, 92.91284964445305, 0.0], [-0.016196266512115365, -0.012855173898291068, -0.025105954593405994, 0.0, 0.0, 92.89667783126902]], 'compliance_tensor': [[4.6, -1.3, -1.3, -0.0, -0.0, 0.0], [-1.3, 4.6, -1.3, 0.0, -0.0, -0.0], [-1.3, -1.3, 4.6, -0.0, 0.0, -0.0], [-0.0, 0.0, -0.0, 10.8, 0.0, 0.0], [-0.0, -0.0, 0.0, 0.0, 10.8, -0.0], [0.0, -0.0, -0.0, 0.0, -0.0, 10.8]], 'warnings': ['Contains a rare earth element'], 'nsites': 22}",0,89,165,0.01,0.27,226.06
100,mp-13137,Hf2CS,"{'Hf': 2.0, 'C': 1.0, 'S': 1.0}",0.135853874,11.15244049,"{'G_Reuss': 122.0, 'G_VRH': 123.0, 'G_Voigt': 124.0, 'G_Voigt_Reuss_Hill': 123.0, 'K_Reuss': 177.0, 'K_VRH': 177.0, 'K_Voigt': 177.0, 'K_Voigt_Reuss_Hill': 177.0, 'elastic_anisotropy': 0.1, 'elastic_tensor': [[318.0, 90.0, 112.0, 0.0, 0.0, 0.0], [90.0, 318.0, 112.0, 0.0, 0.0, 0.0], [112.0, 112.0, 332.0, 0.0, 0.0, 0.0], [0.0, 0.0, 0.0, 145.0, 0.0, 0.0], [0.0, 0.0, 0.0, 0.0, 145.0, 0.0], [0.0, 0.0, 0.0, 0.0, 0.0, 114.0]], 'homogeneous_poisson': 0.22, 'poisson_ratio': 0.22, 'universal_anisotropy': 0.1, 'elastic_tensor_original': [[317.79992617366247, 90.14680171213091, 112.18152513661809, 0.0, 0.0, 0.0], [89.74026131954065, 319.051806718767, 111.15194918496347, 0.0, 0.0, 0.0], [112.6574801906014, 112.65745725404265, 331.94140120037446, 0.0, 0.0, 0.0], [0.001134479901466185, 0.0002761753238721673, 0.0009354395028892087, 145.53270074352872, 0.0, 0.0], [1.7270050104757002e-05, -8.666691791330133e-07, 5.633349697132461e-07, 0.0, 145.0731291891184, 0.0], [5.8906608326383246e-05, -2.3266636972796347e-05, -3.9833249783621526e-06, 0.0, 0.0, 113.16232177215385]], 'compliance_tensor': [[3.7, -0.7, -1.0, -0.0, -0.0, -0.0], [-0.7, 3.7, -1.0, -0.0, -0.0, -0.0], [-1.0, -1.0, 3.7, 0.0, 0.0, 0.0], [-0.0, -0.0, 0.0, 6.9, -0.0, -0.0], [0.0, -0.0, 0.0, -0.0, 6.9, 0.0], [-0.0, -0.0, 0.0, -0.0, 0.0, 8.8]], 'warnings': [], 'nsites': 8}",0,123,177,0.1,0.22,300.12
101,mp-13947,Rb2HfF6,"{'Rb': 2.0, 'Hf': 1.0, 'F': 6.0}",0.300818842,4.657618969,"{'G_Reuss': 10.0, 'G_VRH': 10.0, 'G_Voigt': 11.0, 'G_Voigt_Reuss_Hill': 10.0, 'K_Reuss': 22.0, 'K_VRH': 22.0, 'K_Voigt': 22.0, 'K_Voigt_Reuss_Hill': 22.0, 'elastic_anisotropy': 0.36, 'elastic_tensor': [[40.0, 15.0, 13.0, -2.0, 0.0, 0.0], [15.0, 40.0, 13.0, 2.0, 0.0, 0.0], [13.0, 13.0, 34.0, 0.0, 0.0, 0.0], [-2.0, 2.0, 0.0, 9.0, 0.0, 0.0], [0.0, 0.0, 0.0, 0.0, 9.0, -2.0], [0.0, 0.0, 0.0, 0.0, -2.0, 12.0]], 'homogeneous_poisson': 0.3, 'poisson_ratio': 0.3, 'universal_anisotropy': 0.36, 'elastic_tensor_original': [[39.95598650813677, 16.060568749144014, 13.74477441188039, 2.8570399716186787, 0.0, 0.0], [15.171529600003968, 39.16130994641389, 13.093420943423615, -2.4495578217430474, 0.0, 0.0], [13.522950224920743, 13.522948905125846, 33.72385042112297, 0.0, 0.0, 0.0], [2.3988813670194866, -1.7311571231742313, 0.04847594508803186, 8.761723090567651, 0.0, 0.0], [0.0011780527311419367, 0.02803082498534012, 0.05621402032392888, 0.015654656293015167, 8.411577614337354, 2.0303224970037266], [-0.0004135058907406863, 0.000604439389112585, 0.0010704553556893925, -0.0002924995304108746, 2.190156161875144, 12.376919401417307]], 'compliance_tensor': [[32.8, -10.3, -9.0, 11.2, 0.0, -0.0], [-10.3, 32.8, -9.0, -11.2, -0.0, -0.0], [-9.0, -9.0, 36.8, -0.0, 0.0, 0.0], [11.2, -11.2, -0.0, 122.3, -0.0, -0.0], [0.0, -0.0, 0.0, -0.0, 122.3, 22.5], [-0.0, -0.0, 0.0, -0.0, 22.5, 86.3]], 'warnings': [], 'nsites': 9}",0,10,22,0.36,0.3,26
102,mp-13948,Cs2HfF6,"{'Cs': 2.0, 'Hf': 1.0, 'F': 6.0}",0.326427246,4.956427103,"{'G_Reuss': 8.0, 'G_VRH': 9.0, 'G_Voigt': 9.0, 'G_Voigt_Reuss_Hill': 9.0, 'K_Reuss': 20.0, 'K_VRH': 20.0, 'K_Voigt': 21.0, 'K_Voigt_Reuss_Hill': 20.0, 'elastic_anisotropy': 0.62, 'elastic_tensor': [[37.0, 16.0, 13.0, -3.0, 0.0, 0.0], [16.0, 37.0, 13.0, 3.0, 0.0, 0.0], [13.0, 13.0, 26.0, 0.0, 0.0, 0.0], [-3.0, 3.0, 0.0, 8.0, 0.0, 0.0], [0.0, 0.0, 0.0, 0.0, 8.0, -3.0], [0.0, 0.0, 0.0, 0.0, -3.0, 10.0]], 'homogeneous_poisson': 0.31, 'poisson_ratio': 0.31, 'universal_anisotropy': 0.62, 'elastic_tensor_original': [[36.78324640116524, 15.631838319518215, 13.576834226520907, 3.329487733232818, 0.0, 0.0], [16.620425341141022, 37.54010903007491, 14.386854561877856, -2.9514309178130302, 0.0, 0.0], [12.758927440645882, 12.758922901275806, 26.30496250164384, 0.0, 0.0, 0.0], [3.5307933403338274, -2.7554179829219305, 0.3806622657885634, 8.410733495222305, 0.0, 0.0], [-0.005789850430814557, -0.007049966365297179, -0.001731018921025712, 0.0014039626705165836, 8.301272474983108, 2.967831749208429], [-0.07478958469718269, -0.07742185484089839, -0.07126179112708593, -0.003762803574810305, 3.035788865148061, 10.27515548136815]], 'compliance_tensor': [[39.6, -14.4, -12.8, 19.8, -0.0, -0.0], [-14.4, 39.6, -12.8, -19.8, -0.0, -0.0], [-12.8, -12.8, 51.0, -0.0, 0.0, 0.0], [19.8, -19.8, 0.0, 134.3, -0.0, -0.0], [0.0, -0.0, 0.0, -0.0, 134.3, 39.7], [-0.0, -0.0, 0.0, -0.0, 39.7, 107.9]], 'warnings': [], 'nsites': 9}",0,9,20,0.62,0.31,23.58
103,mp-15297,Hf6NiSb2,"{'Hf': 6.0, 'Ni': 1.0, 'Sb': 2.0}",0.117389179,12.20987986,"{'G_Reuss': 70.0, 'G_VRH': 71.0, 'G_Voigt': 72.0, 'G_Voigt_Reuss_Hill': 71.0, 'K_Reuss': 126.0, 'K_VRH': 126.0, 'K_Voigt': 127.0, 'K_Voigt_Reuss_Hill': 126.0, 'elastic_anisotropy': 0.13, 'elastic_tensor': [[220.0, 90.0, 84.0, 0.0, 0.0, 0.0], [90.0, 220.0, 84.0, 0.0, 0.0, 0.0], [84.0, 84.0, 186.0, 0.0, 0.0, 0.0], [0.0, 0.0, 0.0, 84.0, 0.0, 0.0], [0.0, 0.0, 0.0, 0.0, 84.0, 0.0], [0.0, 0.0, 0.0, 0.0, 0.0, 65.0]], 'homogeneous_poisson': 0.26, 'poisson_ratio': 0.26, 'universal_anisotropy': 0.13, 'elastic_tensor_original': [[222.38039914273267, 91.7968858391251, 85.35280490514432, 0.0, 0.0, 0.0], [87.78250024989391, 218.26291685727074, 81.84103127379569, 0.0, 0.0, 0.0], [83.64010252457517, 83.64013250589498, 186.32517678295852, 0.0, 0.0, 0.0], [0.0002650961014040606, 0.0002648627590131662, 0.00025023277874067294, 84.46972573855884, 0.0, 0.0], [0.00016339448270889456, 0.000164331158884026, 0.00014045464884349497, 0.0, 84.32313062552102, 0.0], [0.009253476390072676, 0.009728680087101465, 0.009452359884834673, 0.0, 0.0, 65.4453066909566]], 'compliance_tensor': [[6.0, -1.7, -1.9, 0.0, -0.0, 0.0], [-1.7, 6.0, -1.9, 0.0, -0.0, 0.0], [-1.9, -1.9, 7.1, -0.0, 0.0, -0.0], [0.0, -0.0, -0.0, 11.8, 0.0, -0.0], [-0.0, 0.0, 0.0, 0.0, 11.8, 0.0], [0.0, 0.0, -0.0, -0.0, 0.0, 15.3]], 'warnings': [], 'nsites': 9}",0,71,126,0.13,0.26,178.92
104,mp-15986,Hf(CuP)2,"{'Hf': 1.0, 'Cu': 2.0, 'P': 2.0}",0.111721883,7.941810442,"{'G_Reuss': 62.0, 'G_VRH': 65.0, 'G_Voigt': 67.0, 'G_Voigt_Reuss_Hill': 65.0, 'K_Reuss': 133.0, 'K_VRH': 133.0, 'K_Voigt': 133.0, 'K_Voigt_Reuss_Hill': 133.0, 'elastic_anisotropy': 0.39, 'elastic_tensor': [[236.0, 85.0, 83.0, -16.0, 0.0, 0.0], [85.0, 236.0, 83.0, 16.0, 0.0, 0.0], [83.0, 83.0, 224.0, 0.0, 0.0, 0.0], [-16.0, 16.0, 0.0, 56.0, 0.0, 0.0], [0.0, 0.0, 0.0, 0.0, 56.0, -16.0], [0.0, 0.0, 0.0, 0.0, -16.0, 76.0]], 'homogeneous_poisson': 0.29, 'poisson_ratio': 0.29, 'universal_anisotropy': 0.39, 'elastic_tensor_original': [[238.54514664877263, 82.92740912427405, 82.85659340910533, 20.904248014738954, 0.0, 0.0], [84.23225934244516, 236.55575276779535, 83.81334880619755, -18.931935774815496, 0.0, 0.0], [81.83080697484273, 81.830827570928, 224.04392624756815, 0.0, 0.0, 0.0], [15.20413167169805, -13.960914399830036, 0.982118823410487, 55.660839256997406, 0.0, 0.0], [-0.004238109191300707, -0.0078073054283754285, -0.00463546701484091, 0.0043674607884925335, 55.34165683292232, 14.476189775685027], [-0.05030214378005325, -0.0723927453827052, -0.029366723831467045, 0.3465254843923195, 16.103791533946477, 74.34144340030602]], 'compliance_tensor': [[5.4, -1.6, -1.4, 2.1, -0.0, -0.0], [-1.6, 5.4, -1.4, -2.1, -0.0, -0.0], [-1.4, -1.4, 5.5, 0.0, -0.0, 0.0], [2.1, -2.1, 0.0, 19.2, -0.0, -0.0], [-0.0, -0.0, 0.0, -0.0, 19.2, 4.1], [-0.0, -0.0, 0.0, -0.0, 4.1, 14.1]], 'warnings': [], 'nsites': 5}",0,65,133,0.39,0.29,167.7