,mp_id,Formula,Composition,IPF,Density,Elastic_Tensor,E_above_Hull,G_VRH,K_VRH,Elastic_Anisotropy,poisson_ratio,Y_Modulus
105,mp-16501,HfAlPd2,"{'Hf': 1.0, 'Al': 1.0, 'Pd': 2.0}",0.134459213,10.44984751,"{'G_Reuss': 24.0, 'G_VRH': 26.0, 'G_Voigt': 28.0, 'G_Voigt_Reuss_Hill': 26.0, 'K_Reuss': 163.0, 'K_VRH': 163.0, 'K_Voigt': 163.0, 'K_Voigt_Reuss_Hill': 163.0, 'elastic_anisotropy': 0.83, 'elastic_tensor': [[185.0, 153.0, 153.0, 0.0, 0.0, 0.0], [153.0, 185.0, 153.0, 0.0, 0.0, 0.0], [153.0, 153.0, 185.0, 0.0, 0.0, 0.0], [0.0, 0.0, 0.0, 36.0, 0.0, 0.0], [0.0, 0.0, 0.0, 0.0, 36.0, 0.0], [0.0, 0.0, 0.0, 0.0, 0.0, 36.0]], 'homogeneous_poisson': 0.42, 'poisson_ratio': 0.42, 'universal_anisotropy': 0.83, 'elastic_tensor_original': [[185.022990886843, 152.6867831984534, 152.6867831984534, 0.0, 0.0, 0.0], [152.6870593317766, 185.02218638505568, 152.6870593317766, 0.0, 0.0, 0.0], [152.6857940564621, 152.6857940564621, 185.02264080360644, 0.0, 0.0, 0.0], [0.03287544915525257, -0.015987988281370512, 0.02833313764172358, 36.365608541759, 0.0, 0.0], [0.012663809278475094, 0.017479760939691977, 0.014231528573574102, 0.0, 36.31016508633604, 0.0], [-1.4946725039363085e-05, -0.00010657341826300934, -0.0012566100532476103, 0.0, 0.0, 36.43339093320722]], 'compliance_tensor': [[21.3, -9.6, -9.6, 0.0, -0.0, 0.0], [-9.6, 21.3, -9.6, 0.0, 0.0, -0.0], [-9.6, -9.6, 21.3, -0.0, 0.0, 0.0], [0.0, 0.0, -0.0, 27.5, -0.0, -0.0], [-0.0, 0.0, 0.0, -0.0, 27.5, -0.0], [0.0, -0.0, 0.0, -0.0, -0.0, 27.5]], 'warnings': [], 'nsites': 4}",0,26,163,0.83,0.42,73.84
106,mp-20401,HfCuSi2,"{'Hf': 1.0, 'Cu': 1.0, 'Si': 2.0}",0.10142584,8.09919192,"{'G_Reuss': 83.0, 'G_VRH': 87.0, 'G_Voigt': 91.0, 'G_Voigt_Reuss_Hill': 87.0, 'K_Reuss': 135.0, 'K_VRH': 135.0, 'K_Voigt': 136.0, 'K_Voigt_Reuss_Hill': 135.0, 'elastic_anisotropy': 0.48, 'elastic_tensor': [[231.0, 99.0, 94.0, 0.0, 0.0, 0.0], [99.0, 231.0, 94.0, 0.0, 0.0, 0.0], [94.0, 94.0, 190.0, 0.0, 0.0, 0.0], [0.0, 0.0, 0.0, 110.0, 0.0, 0.0], [0.0, 0.0, 0.0, 0.0, 110.0, 0.0], [0.0, 0.0, 0.0, 0.0, 0.0, 111.0]], 'homogeneous_poisson': 0.24, 'poisson_ratio': 0.24, 'universal_anisotropy': 0.48, 'elastic_tensor_original': [[231.237921540728, 98.74984908518843, 89.29089079700778, 0.0, 0.0, 0.0], [98.73381061643518, 231.22202980393791, 89.27200920981572, 0.0, 0.0, 0.0], [98.29165741670559, 98.29165741670559, 190.00156064640836, 0.0, 0.0, 0.0], [-5.6666704322188434e-06, 7.774671833608117e-05, -0.00026354684181021813, 109.76517580608652, 0.0, 0.0], [-6.83767121079206e-05, 0.0002028268014584152, 0.0001195700794624482, 0.0, 109.76538773956072, 0.0], [0.0005811137859407604, 0.0005785004505693714, 0.000955097410550762, 0.0, 0.0, 111.32128376329574]], 'compliance_tensor': [[5.9, -1.7, -2.1, 0.0, 0.0, 0.0], [-1.7, 5.9, -2.1, 0.0, -0.0, 0.0], [-2.1, -2.1, 7.3, 0.0, 0.0, 0.0], [0.0, 0.0, 0.0, 9.1, 0.0, 0.0], [0.0, -0.0, 0.0, 0.0, 9.1, 0.0], [0.0, 0.0, 0.0, 0.0, 0.0, 9.0]], 'warnings': [], 'nsites': 8}",0,87,135,0.48,0.24,215.76
107,mp-20730,HfCo2Sn,"{'Hf': 1.0, 'Co': 2.0, 'Sn': 1.0}",0.143458614,11.27775416,"{'G_Reuss': 76.0, 'G_VRH': 78.0, 'G_Voigt': 80.0, 'G_Voigt_Reuss_Hill': 78.0, 'K_Reuss': 164.0, 'K_VRH': 164.0, 'K_Voigt': 164.0, 'K_Voigt_Reuss_Hill': 164.0, 'elastic_anisotropy': 0.26, 'elastic_tensor': [[242.0, 125.0, 125.0, 0.0, 0.0, 0.0], [125.0, 242.0, 125.0, 0.0, 0.0, 0.0], [125.0, 125.0, 242.0, 0.0, 0.0, 0.0], [0.0, 0.0, 0.0, 93.0, 0.0, 0.0], [0.0, 0.0, 0.0, 0.0, 93.0, 0.0], [0.0, 0.0, 0.0, 0.0, 0.0, 93.0]], 'homogeneous_poisson': 0.3, 'poisson_ratio': 0.3, 'universal_anisotropy': 0.26, 'elastic_tensor_original': [[242.0263453169355, 124.66186552694677, 124.66186552694677, 0.0, 0.0, 0.0], [124.66372085322226, 242.0276772655499, 124.66372085322226, 0.0, 0.0, 0.0], [124.66323095194012, 124.66323095194012, 242.0285948302229, 0.0, 0.0, 0.0], [0.00041071973612012317, 0.00041551973303775115, 0.0002335265166305591, 93.46992466403145, 0.0, 0.0], [9.007660879518368e-05, -4.2189972893529883e-05, -0.00018432321490903853, 0.0, 93.47029957712394, 0.0], [0.000255043169474486, 0.00027960648702513003, 0.00013227991501465827, 0.0, 0.0, 93.47035813041967]], 'compliance_tensor': [[6.4, -2.2, -2.2, -0.0, -0.0, 0.0], [-2.2, 6.4, -2.2, 0.0, -0.0, -0.0], [-2.2, -2.2, 6.4, -0.0, 0.0, -0.0], [-0.0, 0.0, -0.0, 10.7, -0.0, -0.0], [-0.0, -0.0, 0.0, -0.0, 10.7, -0.0], [0.0, -0.0, -0.0, -0.0, -0.0, 10.7]], 'warnings': [], 'nsites': 4}",0,78,164,0.26,0.3,202.8
108,mp-22156,Hf2InC,"{'Hf': 2.0, 'In': 1.0, 'C': 1.0}",0.122574675,11.27081086,"{'G_Reuss': 91.0, 'G_VRH': 92.0, 'G_Voigt': 93.0, 'G_Voigt_Reuss_Hill': 92.0, 'K_Reuss': 129.0, 'K_VRH': 130.0, 'K_Voigt': 130.0, 'K_Voigt_Reuss_Hill': 130.0, 'elastic_anisotropy': 0.1, 'elastic_tensor': [[275.0, 62.0, 63.0, 0.0, 0.0, 0.0], [62.0, 275.0, 63.0, 0.0, 0.0, 0.0], [63.0, 63.0, 240.0, 0.0, 0.0, 0.0], [0.0, 0.0, 0.0, 79.0, 0.0, 0.0], [0.0, 0.0, 0.0, 0.0, 79.0, 0.0], [0.0, 0.0, 0.0, 0.0, 0.0, 106.0]], 'homogeneous_poisson': 0.21, 'poisson_ratio': 0.21, 'universal_anisotropy': 0.1, 'elastic_tensor_original': [[275.6558274202658, 62.469854508323124, 63.327375232925455, 0.0, 0.0, 0.0], [60.676665907770726, 275.5820591101575, 61.623133431932715, 0.0, 0.0, 0.0], [64.25437262591674, 64.2544180806717, 240.0004922144524, 0.0, 0.0, 0.0], [-0.061069558018588724, 0.0032329924151717915, -0.05612868174910429, 78.74686100292351, 0.0, 0.0], [-0.00030356628943581046, -0.00023212304488199305, -0.0003993528370732468, 0.0, 79.10905852398867, 0.0], [0.0008368856263365367, 0.000472606079171614, 0.0018028677589106091, 0.0, 0.0, 105.17405835427803]], 'compliance_tensor': [[4.0, -0.7, -0.9, -0.0, -0.0, 0.0], [-0.7, 4.0, -0.9, -0.0, 0.0, 0.0], [-0.9, -0.9, 4.6, 0.0, 0.0, -0.0], [-0.0, -0.0, 0.0, 12.7, 0.0, 0.0], [-0.0, 0.0, 0.0, 0.0, 12.7, 0.0], [0.0, 0.0, -0.0, -0.0, -0.0, 9.4]], 'warnings': [], 'nsites': 8}",0,92,130,0.1,0.21,222.64
109,mp-22191,HfFeGe,"{'Hf': 1.0, 'Fe': 1.0, 'Ge': 1.0}",0.154466239,11.12127076,"{'G_Reuss': 89.0, 'G_VRH': 91.0, 'G_Voigt': 93.0, 'G_Voigt_Reuss_Hill': 91.0, 'K_Reuss': 195.0, 'K_VRH': 197.0, 'K_Voigt': 200.0, 'K_Voigt_Reuss_Hill': 197.0, 'elastic_anisotropy': 0.25, 'elastic_tensor': [[329.0, 161.0, 143.0, 0.0, 0.0, 0.0], [161.0, 329.0, 143.0, 0.0, 0.0, 0.0], [143.0, 143.0, 248.0, 0.0, 0.0, 0.0], [0.0, 0.0, 0.0, 114.0, 0.0, 0.0], [0.0, 0.0, 0.0, 0.0, 114.0, 0.0], [0.0, 0.0, 0.0, 0.0, 0.0, 84.0]], 'homogeneous_poisson': 0.3, 'poisson_ratio': 0.3, 'universal_anisotropy': 0.25, 'elastic_tensor_original': [[382.9544394603414, 194.29858912558072, 145.6659535635833, 0.0, 0.0, 0.0], [118.8756608486293, 284.3520619761788, 148.50556673941156, 0.0, 0.0, 0.0], [139.03541612505904, 139.03536035066318, 248.17988909616858, 0.0, 0.0, 0.0], [0.30708516955607146, 0.4220416721564324, 0.27642309330184706, 113.55560544981219, 0.0, 0.0], [-0.3338353885940865, 0.2151108237038338, 0.060649028432601435, 0.0, 113.63187423901984, 0.0], [9.02549201018442, 8.47029934685752, -4.8114903996443665, 0.0, 0.0, 79.21381855079574]], 'compliance_tensor': [[4.5, -1.4, -1.8, 0.0, 0.0, -0.0], [-1.4, 4.5, -1.8, -0.0, -0.0, -0.0], [-1.8, -1.8, 6.1, 0.0, 0.0, 0.0], [-0.0, -0.0, 0.0, 8.8, -0.0, -0.0], [0.0, -0.0, 0.0, -0.0, 8.8, -0.0], [-0.0, -0.0, 0.0, -0.0, -0.0, 11.9]], 'warnings': [], 'nsites': 9}",0,91,197,0.25,0.3,236.6
110,mp-22315,HfCoSn,"{'Hf': 1.0, 'Co': 1.0, 'Sn': 1.0}",0.13137054,11.31261398,"{'G_Reuss': 70.0, 'G_VRH': 72.0, 'G_Voigt': 74.0, 'G_Voigt_Reuss_Hill': 72.0, 'K_Reuss': 139.0, 'K_VRH': 140.0, 'K_Voigt': 141.0, 'K_Voigt_Reuss_Hill': 140.0, 'elastic_anisotropy': 0.29, 'elastic_tensor': [[235.0, 101.0, 101.0, 0.0, 0.0, 0.0], [101.0, 235.0, 101.0, 0.0, 0.0, 0.0], [101.0, 101.0, 188.0, 0.0, 0.0, 0.0], [0.0, 0.0, 0.0, 93.0, 0.0, 0.0], [0.0, 0.0, 0.0, 0.0, 93.0, 0.0], [0.0, 0.0, 0.0, 0.0, 0.0, 67.0]], 'homogeneous_poisson': 0.28, 'poisson_ratio': 0.28, 'universal_anisotropy': 0.29, 'elastic_tensor_original': [[234.23186629388826, 99.68214251835087, 100.15529973060823, 0.0, 0.0, -4.0255303926492575e-06], [102.43302020019824, 235.53531783924723, 101.95471911668581, 0.0, 0.0, -1.9057925214392805e-05], [101.52918591502876, 101.5292087531795, 188.39030439456144, 0.0, 0.0, -8.259296026824822e-06], [0.0201182035575545, 0.019893453807808735, 0.028876380166728874, 92.94778788840418, -7.526667900486165e-06, -6.666664139251075e-09], [0.001348606481693385, 5.9703325144766255e-05, 0.0005300099273045317, -4.666666026591244e-08, 92.90725187026406, 0.0], [-0.19809961033683782, -0.34250410464119374, -0.17871334481139767, 0.0, 0.0, 67.37826871084494]], 'compliance_tensor': [[5.9, -1.5, -2.4, 0.0, -0.0, 0.0], [-1.5, 5.9, -2.4, -0.0, -0.0, 0.0], [-2.4, -2.4, 7.9, 0.0, 0.0, -0.0], [0.0, -0.0, 0.0, 10.8, 0.0, 0.0], [-0.0, 0.0, 0.0, 0.0, 10.8, 0.0], [0.0, 0.0, -0.0, 0.0, 0.0, 14.9]], 'warnings': [], 'nsites': 18}",0,72,140,0.29,0.28,184.32
111,mp-22489,HfCuSi,"{'Hf': 1.0, 'Cu': 1.0, 'Si': 1.0}",0.121171001,9.807822549,"{'G_Reuss': 84.0, 'G_VRH': 85.0, 'G_Voigt': 87.0, 'G_Voigt_Reuss_Hill': 85.0, 'K_Reuss': 155.0, 'K_VRH': 155.0, 'K_Voigt': 155.0, 'K_Voigt_Reuss_Hill': 155.0, 'elastic_anisotropy': 0.19, 'elastic_tensor': [[256.0, 89.0, 111.0, 0.0, 0.0, 0.0], [89.0, 243.0, 122.0, 0.0, 0.0, 0.0], [111.0, 122.0, 255.0, 0.0, 0.0, 0.0], [0.0, 0.0, 0.0, 111.0, 0.0, 0.0], [0.0, 0.0, 0.0, 0.0, 93.0, 0.0], [0.0, 0.0, 0.0, 0.0, 0.0, 85.0]], 'homogeneous_poisson': 0.27, 'poisson_ratio': 0.27, 'universal_anisotropy': 0.19, 'elastic_tensor_original': [[254.564242685928, 110.62899004235875, 120.15373063621165, 0.0, 0.0, 0.0], [111.61772583783197, 255.9076611292763, 88.7548898806608, 0.0, 0.0, 0.0], [123.09466351970639, 88.7738115429188, 243.01012451655234, 0.0, 0.0, 0.0], [7.338341827406157e-05, -0.0006707462937894793, -0.00018192698203062024, 85.38020918318016, 0.0, 0.0], [0.0004226739609350256, 0.0014498321527616205, 0.0008943813280088596, 0.0, 110.50456499105529, 0.0], [-0.00034275383085425806, -0.00038662389453590065, -0.0006525009471358655, 0.0, 0.0, 93.42096458491032]], 'compliance_tensor': [[5.0, -1.0, -1.7, 0.0, 0.0, 0.0], [-1.0, 5.6, -2.3, 0.0, -0.0, 0.0], [-1.7, -2.3, 5.8, 0.0, -0.0, 0.0], [0.0, 0.0, 0.0, 9.0, 0.0, 0.0], [0.0, -0.0, -0.0, 0.0, 10.7, 0.0], [0.0, 0.0, 0.0, 0.0, 0.0, 11.7]], 'warnings': [], 'nsites': 12}",0,85,155,0.19,0.27,215.9
112,mp-22637,HfNbP,"{'Hf': 1.0, 'Nb': 1.0, 'P': 1.0}",0.109937654,9.894290736,"{'G_Reuss': 96.0, 'G_VRH': 99.0, 'G_Voigt': 103.0, 'G_Voigt_Reuss_Hill': 99.0, 'K_Reuss': 179.0, 'K_VRH': 179.0, 'K_Voigt': 179.0, 'K_Voigt_Reuss_Hill': 179.0, 'elastic_anisotropy': 0.38, 'elastic_tensor': [[309.0, 80.0, 149.0, 0.0, 0.0, 0.0], [80.0, 324.0, 121.0, 0.0, 0.0, 0.0], [149.0, 121.0, 276.0, 0.0, 0.0, 0.0], [0.0, 0.0, 0.0, 122.0, 0.0, 0.0], [0.0, 0.0, 0.0, 0.0, 129.0, 0.0], [0.0, 0.0, 0.0, 0.0, 0.0, 78.0]], 'homogeneous_poisson': 0.27, 'poisson_ratio': 0.27, 'universal_anisotropy': 0.38, 'elastic_tensor_original': [[276.3866638500088, 148.6369338392126, 120.70944771659644, 0.0, 0.0, 0.0], [149.43495508301817, 309.4357703481288, 80.28734109190614, 0.0, 0.0, 0.0], [121.44375761934275, 78.9869890943976, 323.8604354807993, 0.0, 0.0, 0.0], [4.143997245901048e-05, 1.1393329367039924e-05, -3.48032522000404e-05, 78.45973339186601, 0.0, 0.0], [-0.00017544018170125364, 4.4833160698287355e-05, -2.725684634951688e-05, 0.0, 121.61198795747524, 0.0], [-0.010180192716889525, -0.003211241278269087, 0.018615246669648918, 0.0, 0.0, 128.87580310131028]], 'compliance_tensor': [[4.4, -0.2, -2.3, 0.0, 0.0, 0.0], [-0.2, 3.7, -1.5, 0.0, 0.0, 0.0], [-2.3, -1.5, 5.5, 0.0, 0.0, 0.0], [0.0, 0.0, 0.0, 8.2, 0.0, 0.0], [0.0, 0.0, 0.0, 0.0, 7.8, 0.0], [0.0, 0.0, 0.0, 0.0, 0.0, 12.7]], 'warnings': [], 'nsites': 12}",0,99,179,0.38,0.27,251.46
113,mp-29154,Hf2CoP,"{'Hf': 2.0, 'Co': 1.0, 'P': 1.0}",0.11938797,11.44378749,"{'G_Reuss': 83.0, 'G_VRH': 86.0, 'G_Voigt': 89.0, 'G_Voigt_Reuss_Hill': 86.0, 'K_Reuss': 165.0, 'K_VRH': 166.0, 'K_Voigt': 167.0, 'K_Voigt_Reuss_Hill': 166.0, 'elastic_anisotropy': 0.39, 'elastic_tensor': [[241.0, 136.0, 96.0, 0.0, 11.0, 0.0], [136.0, 249.0, 121.0, 0.0, -2.0, 0.0], [96.0, 121.0, 304.0, 0.0, 6.0, 0.0], [0.0, 0.0, 0.0, 108.0, 0.0, -4.0], [11.0, -2.0, 6.0, 0.0, 84.0, 0.0], [0.0, 0.0, 0.0, -4.0, 0.0, 108.0]], 'homogeneous_poisson': 0.28, 'poisson_ratio': 0.28, 'universal_anisotropy': 0.39, 'elastic_tensor_original': [[249.49334343241185, 122.71645102342235, 137.78298010382238, -1.8611899280426727, 0.0, 0.0], [119.28592835348961, 303.4898428957595, 96.84769882747213, 6.53039737030986, 0.0, 0.0], [134.65118266281087, 94.67893026013668, 241.18518594370332, 11.21511986355581, 0.0, 0.0], [-1.6383308605964506, 5.461486015099859, 10.716914073827983, 84.24324327795041, 0.0, 0.0], [4.522461657363184e-06, -6.626091805876451e-05, -3.203082250711526e-05, 6.400048150500558e-06, 107.56913339701272, -4.417592726515022], [-0.0003586765712775862, -0.00037495320944271006, -0.0003831865459156295, -1.2283370330934552e-05, -4.34029067268956, 108.28949990512186]], 'compliance_tensor': [[6.2, -3.0, -0.7, 0.0, -0.8, 0.0], [-3.0, 6.5, -1.6, 0.0, 0.6, 0.0], [-0.7, -1.6, 4.2, 0.0, -0.2, 0.0], [0.0, 0.0, 0.0, 9.3, 0.0, 0.4], [-0.8, 0.6, -0.2, 0.0, 12.0, 0.0], [0.0, 0.0, 0.0, 0.4, 0.0, 9.3]], 'warnings': [], 'nsites': 8}",0,86,166,0.39,0.28,220.16
114,mp-29398,Cs2HfI6,"{'Cs': 2.0, 'Hf': 1.0, 'I': 6.0}",0.240784656,4.629361638,"{'G_Reuss': 4.0, 'G_VRH': 4.0, 'G_Voigt': 4.0, 'G_Voigt_Reuss_Hill': 4.0, 'K_Reuss': 7.0, 'K_VRH': 7.0, 'K_Voigt': 7.0, 'K_Voigt_Reuss_Hill': 7.0, 'elastic_anisotropy': 0.16, 'elastic_tensor': [[11.0, 5.0, 5.0, 0.0, 0.0, 0.0], [5.0, 11.0, 5.0, 0.0, 0.0, 0.0], [5.0, 5.0, 11.0, 0.0, 0.0, 0.0], [0.0, 0.0, 0.0, 5.0, 0.0, 0.0], [0.0, 0.0, 0.0, 0.0, 5.0, 0.0], [0.0, 0.0, 0.0, 0.0, 0.0, 5.0]], 'homogeneous_poisson': 0.25, 'poisson_ratio': 0.25, 'universal_anisotropy': 0.16, 'elastic_tensor_original': [[11.128462820204492, 4.684682451051355, 4.684682451051355, 0.0, 0.0, 0.0], [4.685240217808259, 11.126601701783706, 4.685240217808259, 0.0, 0.0, 0.0], [4.685396291376845, 4.685396291376845, 11.127082968664713, 0.0, 0.0, 0.0], [0.0013102323445427786, -0.004937754571056097, -0.009168843105307953, 4.633388041447264, 0.0, 0.0], [-0.01906198779798876, 0.04525921843995568, -0.013191924347843557, 0.0, 4.651915316527881, 0.0], [-0.00835845352277391, -0.03850810867292548, -0.00960060302044354, 0.0, 0.0, 4.645095362440456]], 'compliance_tensor': [[119.7, -35.5, -35.5, 0.0, -0.0, 0.0], [-35.5, 119.7, -35.5, 0.0, 0.0, -0.0], [-35.5, -35.5, 119.7, -0.0, 0.0, 0.0], [0.0, 0.0, -0.0, 215.4, -0.0, -0.0], [-0.0, 0.0, 0.0, -0.0, 215.4, -0.0], [0.0, -0.0, 0.0, -0.0, -0.0, 215.4]], 'warnings': [], 'nsites': 9}",0,4,7,0.16,0.25,10
115,mp-29419,Hf(Te2Cl3)2,"{'Hf': 1.0, 'Te': 4.0, 'Cl': 6.0}",0.127804767,3.77054747,"{'G_Reuss': 1.0, 'G_VRH': 2.0, 'G_Voigt': 3.0, 'G_Voigt_Reuss_Hill': 2.0, 'K_Reuss': 4.0, 'K_VRH': 7.0, 'K_Voigt': 10.0, 'K_Voigt_Reuss_Hill': 7.0, 'elastic_anisotropy': 21.79, 'elastic_tensor': [[11.0, 10.0, 8.0, 1.0, 1.0, 5.0], [10.0, 13.0, 10.0, -2.0, -1.0, 7.0], [8.0, 10.0, 12.0, -1.0, -0.0, 5.0], [1.0, -2.0, -1.0, 3.0, 2.0, -1.0], [1.0, -1.0, -0.0, 2.0, 2.0, -1.0], [5.0, 7.0, 5.0, -1.0, -1.0, 7.0]], 'homogeneous_poisson': 0.39, 'poisson_ratio': 0.39, 'universal_anisotropy': 21.79, 'elastic_tensor_original': [[11.921051205861247, 8.788522351959239, 7.3796462691354145, -0.5891583526451373, 2.267718580225595, -5.118044654792214], [9.650967882771255, 16.226155981123068, 9.265259150706967, 4.581517957273927, -0.22375188957652126, -7.714756379108774], [7.650765527596887, 9.838318478823542, 10.441830994934373, 1.9640214005313072, 1.9027759133783997, -4.420493781168103], [-0.2865722243205164, 3.0544026284354886, 1.037627133128119, 2.8443204330165814, -0.4755013691219224, -1.6558216083486355], [1.2320095819484074, -0.014053179863341115, 1.684517958873535, -0.6605823197004704, 1.250919305181269, -0.40516298456286176], [-4.851077133410074, -7.0912216386178795, -4.246057883021794, -1.8759160223776645, -0.3907925880965147, 6.406091359609183]], 'compliance_tensor': [[1032.3, -895.7, 132.6, -91.7, -1228.8, -190.1], [-895.7, 1066.3, -272.9, 147.9, 1088.5, 1.1], [132.6, -272.9, 228.0, -21.3, -243.5, -38.2], [-91.7, 147.9, -21.3, 820.5, -685.7, -61.2], [-1228.8, 1088.5, -243.5, -685.7, 2955.1, 404.3], [-190.1, 1.1, -38.2, -61.2, 404.3, 375.7]], 'warnings': ['One or more K, G below 2 GPa', 'Inequivalent optimization structure'], 'nsites': 11}",0,2,7,21.79,0.39,5.56
116,mp-3378,SrHfO3,"{'Sr': 1.0, 'Hf': 1.0, 'O': 3.0}",0.537600255,7.508740709,"{'G_Reuss': 90.0, 'G_VRH': 91.0, 'G_Voigt': 91.0, 'G_Voigt_Reuss_Hill': 91.0, 'K_Reuss': 157.0, 'K_VRH': 157.0, 'K_Voigt': 157.0, 'K_Voigt_Reuss_Hill': 157.0, 'elastic_anisotropy': 0.03, 'elastic_tensor': [[272.0, 85.0, 109.0, 0.0, 0.0, 0.0], [85.0, 288.0, 96.0, 0.0, 0.0, 0.0], [109.0, 96.0, 271.0, 0.0, 0.0, 0.0], [0.0, 0.0, 0.0, 88.0, 0.0, 0.0], [0.0, 0.0, 0.0, 0.0, 94.0, 0.0], [0.0, 0.0, 0.0, 0.0, 0.0, 93.0]], 'homogeneous_poisson': 0.26, 'poisson_ratio': 0.26, 'universal_anisotropy': 0.03, 'elastic_tensor_original': [[270.8085582927192, 108.87799885059057, 95.20311152248786, 0.0, 0.0, 0.0], [109.97246524431459, 272.476657373942, 83.1421875910904, 0.0, 0.0, 0.0], [96.64001605320593, 85.95831237508621, 287.6616727992853, 0.0, 0.0, 0.0], [-0.04079987982701655, -0.0016256080362943913, -0.019073722867577775, 92.70120971542957, 0.0, 0.0], [-0.00022816355007003204, 6.58733959082394e-05, 4.920338007256998e-05, 0.0, 87.73125152492138, 0.0], [0.022953191649659543, -0.04750532480745401, 0.02204038745535873, 0.0, 0.0, 93.67326705347637]], 'compliance_tensor': [[4.545540792703431, -0.8204891956310856, -1.5460894291760086, 0.0, 0.0, -1.329077910013039e-21], [-0.8204891956310857, 4.089985144206941, -1.117156533694256, 0.0, 0.0, 2.399041423339814e-22], [-1.5460894291760086, -1.1171565336942557, 4.713073339734907, 0.0, 0.0, 4.520635499566992e-22], [0.0, 0.0, 0.0, 11.398446763476697, 0.0, 0.0], [0.0, 0.0, 0.0, 0.0, 10.675404322442583, 0.0], [-1.3290779100130391e-21, 2.3990414233398147e-22, 4.520635499566992e-22, 0.0, 0.0, 10.787345743057287]], 'warnings': [], 'nsites': 20}",0,91,157,0.03,0.26,229.32
117,mp-561442,Y2Hf2O7,"{'Y': 2.0, 'Hf': 2.0, 'O': 7.0}",0.502255595,7.366993711,"{'G_Reuss': 95.0, 'G_VRH': 96.0, 'G_Voigt': 96.0, 'G_Voigt_Reuss_Hill': 96.0, 'K_Reuss': 171.0, 'K_VRH': 171.0, 'K_Voigt': 171.0, 'K_Voigt_Reuss_Hill': 171.0, 'elastic_anisotropy': 0.03, 'elastic_tensor': [[310.0, 101.0, 101.0, 0.0, 0.0, 0.0], [101.0, 310.0, 101.0, 0.0, 0.0, 0.0], [101.0, 101.0, 310.0, 0.0, 0.0, 0.0], [0.0, 0.0, 0.0, 90.0, 0.0, 0.0], [0.0, 0.0, 0.0, 0.0, 90.0, 0.0], [0.0, 0.0, 0.0, 0.0, 0.0, 90.0]], 'homogeneous_poisson': 0.26, 'poisson_ratio': 0.26, 'universal_anisotropy': 0.03, 'elastic_tensor_original': [[309.9645295410728, 101.33172758310785, 101.33172758310785, 0.0, 0.0, 0.0], [101.33136299941408, 309.96428297198156, 101.33136299941408, 0.0, 0.0, 0.0], [101.332371481094, 101.332371481094, 309.9650556416616, 0.0, 0.0, 0.0], [-8.722003461711951e-05, -3.2290007540633575e-05, -2.867666974976896e-05, 90.11428764389862, 0.0, 0.0], [-0.00010207335032225662, -0.00029324338246080613, -0.00011638668541379372, 0.0, 90.1142300438931, 0.0], [7.328667088840371e-05, 4.3770000550795984e-05, -5.384334323687463e-05, 0.0, 0.0, 90.1143637605302]], 'compliance_tensor': [[3.8, -0.9, -0.9, -0.0, 0.0, -0.0], [-0.9, 3.8, -0.9, -0.0, -0.0, 0.0], [-0.9, -0.9, 3.8, 0.0, -0.0, -0.0], [-0.0, -0.0, 0.0, 11.1, -0.0, -0.0], [0.0, -0.0, -0.0, -0.0, 11.1, -0.0], [-0.0, 0.0, -0.0, -0.0, -0.0, 11.1]], 'warnings': [], 'nsites': 22}",0.29495625,96,171,0.03,0.26,241.92