,mp_id,Formula,Composition,IPF,Density,Elastic_Tensor,E_above_Hull,G_VRH,K_VRH,Elastic_Anisotropy,poisson_ratio,Y_Modulus
196,mp-864684,Hf2MoIr,"{'Hf': 2.0, 'Mo': 1.0, 'Ir': 1.0}",0.126710339,15.13283504,"{'G_Reuss': 80.0, 'G_VRH': 81.0, 'G_Voigt': 81.0, 'G_Voigt_Reuss_Hill': 81.0, 'K_Reuss': 191.0, 'K_VRH': 191.0, 'K_Voigt': 191.0, 'K_Voigt_Reuss_Hill': 191.0, 'elastic_anisotropy': 0.07, 'elastic_tensor': [[316.0, 129.0, 129.0, 0.0, 0.0, 0.0], [129.0, 316.0, 129.0, 0.0, 0.0, 0.0], [129.0, 129.0, 316.0, 0.0, 0.0, 0.0], [0.0, 0.0, 0.0, 73.0, 0.0, 0.0], [0.0, 0.0, 0.0, 0.0, 73.0, 0.0], [0.0, 0.0, 0.0, 0.0, 0.0, 73.0]], 'homogeneous_poisson': 0.32, 'poisson_ratio': 0.32, 'universal_anisotropy': 0.07, 'elastic_tensor_original': [[314.9584168829265, 130.90888984030775, 130.90889237391335, -4.129577638411477e-06, -4.029829386275934e-06, -2.3939580512530303e-07], [130.96507949760513, 314.5990636410929, 130.96508076440793, 2.014914693137967e-06, 2.0647888192057387e-06, -1.7954685384397726e-07], [126.50138799993131, 126.50143636024649, 316.9722979001536, -3.3683801652569413e-06, 1.1388332939678228e-05, 4.451073789803814e-06], [5.279995642513403e-06, 6.766661102815221e-07, -1.4366654798936096e-06, 73.29223738108243, 0.0, 0.0], [-1.485998773237088e-05, -1.689331938911821e-05, -1.8976651002283076e-05, 0.0, 73.29222484775944, 0.0], [1.035999144999446e-05, 1.1336657310483949e-05, 1.1256657375300733e-05, 0.0, 0.0, 73.29223907441437]], 'compliance_tensor': [[4.2, -1.2, -1.2, 0.0, 0.0, 0.0], [-1.2, 4.2, -1.2, 0.0, 0.0, -0.0], [-1.2, -1.2, 4.2, -0.0, 0.0, -0.0], [0.0, 0.0, -0.0, 13.6, 0.0, 0.0], [0.0, 0.0, 0.0, 0.0, 13.6, 0.0], [0.0, -0.0, -0.0, 0.0, 0.0, 13.6]], 'warnings': [], 'nsites': 4}",0,81,191,0.07,0.32,213.84
197,mp-864877,Hf2CoRe,"{'Hf': 2.0, 'Co': 1.0, 'Re': 1.0}",0.127578815,14.90188551,"{'G_Reuss': 87.0, 'G_VRH': 88.0, 'G_Voigt': 89.0, 'G_Voigt_Reuss_Hill': 88.0, 'K_Reuss': 188.0, 'K_VRH': 188.0, 'K_Voigt': 188.0, 'K_Voigt_Reuss_Hill': 188.0, 'elastic_anisotropy': 0.1, 'elastic_tensor': [[327.0, 118.0, 118.0, 0.0, 0.0, 0.0], [118.0, 327.0, 118.0, 0.0, 0.0, 0.0], [118.0, 118.0, 327.0, 0.0, 0.0, 0.0], [0.0, 0.0, 0.0, 78.0, 0.0, 0.0], [0.0, 0.0, 0.0, 0.0, 78.0, 0.0], [0.0, 0.0, 0.0, 0.0, 0.0, 78.0]], 'homogeneous_poisson': 0.3, 'poisson_ratio': 0.3, 'universal_anisotropy': 0.1, 'elastic_tensor_original': [[325.0759170489783, 115.53688366660917, 115.53898230949626, -3.3570737763616006e-05, 0.0002606192627817945, 0.00017818273159249376], [118.42020952665875, 327.2911632210247, 118.42024624687069, 0.0, 0.0, 0.0], [121.07618433304522, 121.07637140433982, 329.59851806971886, 3.262122884959524e-05, -5.401449939816204e-05, 2.343836295339696e-05], [0.01349878689518527, 0.01717587346133671, 0.014909215764884012, 78.4331098063124, 0.0, 0.0], [-0.1432919903915194, -0.20177789423772977, -0.12602173267277736, 0.0, 78.4127034872249, 0.0], [-0.00048762864113957604, 5.1088602389313374e-05, 0.003777048579879664, 0.0, 0.0, 78.43569492605675]], 'compliance_tensor': [[3.8, -1.0, -1.0, 0.0, -0.0, -0.0], [-1.0, 3.8, -1.0, -0.0, 0.0, -0.0], [-1.0, -1.0, 3.8, -0.0, -0.0, 0.0], [0.0, -0.0, -0.0, 12.8, -0.0, -0.0], [-0.0, 0.0, -0.0, -0.0, 12.8, -0.0], [-0.0, -0.0, 0.0, -0.0, -0.0, 12.8]], 'warnings': [], 'nsites': 4}",0,88,188,0.1,0.3,228.8
198,mp-864890,Hf2FeIr,"{'Hf': 2.0, 'Fe': 1.0, 'Ir': 1.0}",0.142581188,14.89805744,"{'G_Reuss': 65.0, 'G_VRH': 65.0, 'G_Voigt': 65.0, 'G_Voigt_Reuss_Hill': 65.0, 'K_Reuss': 188.0, 'K_VRH': 188.0, 'K_Voigt': 188.0, 'K_Voigt_Reuss_Hill': 188.0, 'elastic_anisotropy': 0.0, 'elastic_tensor': [[275.0, 144.0, 144.0, 0.0, 0.0, 0.0], [144.0, 275.0, 144.0, 0.0, 0.0, 0.0], [144.0, 144.0, 275.0, 0.0, 0.0, 0.0], [0.0, 0.0, 0.0, 65.0, 0.0, 0.0], [0.0, 0.0, 0.0, 0.0, 65.0, 0.0], [0.0, 0.0, 0.0, 0.0, 0.0, 65.0]], 'homogeneous_poisson': 0.34, 'poisson_ratio': 0.34, 'universal_anisotropy': 0.0, 'elastic_tensor_original': [[275.08420027445555, 144.19222846524508, 144.19222846524508, 0.0, 0.0, 0.0], [144.19555412324667, 275.08720188309337, 144.19555412324667, 0.0, 0.0, 0.0], [144.2049005887124, 144.2049005887124, 275.09671361505997, 0.0, 0.0, 0.0], [0.00013868344290418074, 0.00016567013089168852, 0.00014782345012459937, 65.43178234917482, 0.0, 0.0], [0.00034899694240068415, 0.000334366930841281, 0.00034446027214877296, 0.0, 65.43199267267431, 0.0], [-0.0009017307124308681, -0.0009108040529341052, -0.0008937507061256859, 0.0, 0.0, 65.43180726252784]], 'compliance_tensor': [[5.7, -2.0, -2.0, 0.0, -0.0, 0.0], [-2.0, 5.7, -2.0, -0.0, 0.0, -0.0], [-2.0, -2.0, 5.7, 0.0, 0.0, 0.0], [0.0, -0.0, 0.0, 15.3, -0.0, 0.0], [-0.0, 0.0, 0.0, -0.0, 15.3, -0.0], [0.0, -0.0, 0.0, 0.0, -0.0, 15.3]], 'warnings': [], 'nsites': 4}",0,65,188,0,0.34,174.2
199,mp-864909,HfAlRu2,"{'Hf': 1.0, 'Al': 1.0, 'Ru': 2.0}",0.101856742,10.97775589,"{'G_Reuss': 80.0, 'G_VRH': 80.0, 'G_Voigt': 80.0, 'G_Voigt_Reuss_Hill': 80.0, 'K_Reuss': 195.0, 'K_VRH': 195.0, 'K_Voigt': 195.0, 'K_Voigt_Reuss_Hill': 195.0, 'elastic_anisotropy': 0.02, 'elastic_tensor': [[310.0, 137.0, 137.0, 0.0, 0.0, 0.0], [137.0, 310.0, 137.0, 0.0, 0.0, 0.0], [137.0, 137.0, 310.0, 0.0, 0.0, 0.0], [0.0, 0.0, 0.0, 76.0, 0.0, 0.0], [0.0, 0.0, 0.0, 0.0, 76.0, 0.0], [0.0, 0.0, 0.0, 0.0, 0.0, 76.0]], 'homogeneous_poisson': 0.32, 'poisson_ratio': 0.32, 'universal_anisotropy': 0.02, 'elastic_tensor_original': [[309.5089259516609, 136.85627020323517, 136.8561828722126, 0.0, 0.0, 0.0], [137.3941539113248, 309.28870129022147, 137.39411009637823, 0.0, 0.0, 0.0], [136.81274279351274, 136.81278642914006, 311.36239132249847, 0.0, 0.0, 0.0], [-0.00010316633023742, -8.089125893425135e-05, -0.00011009284465114945, 76.02785442755393, 0.0, 0.0], [-0.0005517073160155268, -0.0005730525610678414, -0.0005702754118675717, 0.0, 76.02785852623639, 0.0], [-0.00043346548361862644, -0.000436415889857158, -0.00042284202699887995, 0.0, 0.0, 76.02781819796158]], 'compliance_tensor': [[4.4, -1.4, -1.4, 0.0, 0.0, 0.0], [-1.4, 4.4, -1.4, -0.0, -0.0, 0.0], [-1.4, -1.4, 4.4, -0.0, 0.0, -0.0], [0.0, -0.0, -0.0, 13.2, 0.0, 0.0], [0.0, -0.0, 0.0, 0.0, 13.2, -0.0], [0.0, 0.0, -0.0, 0.0, -0.0, 13.2]], 'warnings': [], 'nsites': 4}",0,80,195,0.02,0.32,211.2
200,mp-864926,HfPaTc2,"{'Hf': 1.0, 'Pa': 1.0, 'Tc': 2.0}",0.140979675,13.24559534,"{'G_Reuss': 39.0, 'G_VRH': 45.0, 'G_Voigt': 52.0, 'G_Voigt_Reuss_Hill': 45.0, 'K_Reuss': 168.0, 'K_VRH': 168.0, 'K_Voigt': 168.0, 'K_Voigt_Reuss_Hill': 168.0, 'elastic_anisotropy': 1.65, 'elastic_tensor': [[284.0, 110.0, 110.0, 0.0, 0.0, 0.0], [110.0, 284.0, 110.0, 0.0, 0.0, 0.0], [110.0, 110.0, 284.0, 0.0, 0.0, 0.0], [0.0, 0.0, 0.0, 28.0, 0.0, 0.0], [0.0, 0.0, 0.0, 0.0, 28.0, 0.0], [0.0, 0.0, 0.0, 0.0, 0.0, 28.0]], 'homogeneous_poisson': 0.38, 'poisson_ratio': 0.38, 'universal_anisotropy': 1.65, 'elastic_tensor_original': [[283.788726612209, 111.54203474662411, 111.54203474662411, 0.0, 0.0, 0.0], [111.64148489739476, 283.8861264902488, 111.64148489739476, 0.0, 0.0, 0.0], [106.56308340524498, 106.56308340524498, 283.43665854256716, 0.0, 0.0, 0.0], [-0.06283077099129497, 0.06159250842674202, 1.9156654773450568e-05, 28.493008943348748, 0.0, 0.0], [0.06164993505775534, -0.06273981104776771, 3.7546643356375074e-05, 0.0, 28.493190563236, 0.0], [0.061853998264394715, 6.468995983805645e-05, -0.06295386424820543, 0.0, 0.0, 28.49334340980776]], 'compliance_tensor': [[4.5, -1.3, -1.3, 0.0, -0.0, 0.0], [-1.3, 4.5, -1.3, 0.0, 0.0, -0.0], [-1.3, -1.3, 4.5, -0.0, 0.0, 0.0], [0.0, 0.0, -0.0, 35.1, -0.0, -0.0], [-0.0, 0.0, 0.0, -0.0, 35.1, -0.0], [0.0, -0.0, 0.0, -0.0, -0.0, 35.1]], 'warnings': ['Contains a rare earth element'], 'nsites': 4}",0,45,168,1.65,0.38,124.2
201,mp-865019,HfGaRh2,"{'Hf': 1.0, 'Ga': 1.0, 'Rh': 2.0}",0.124865954,11.95377551,"{'G_Reuss': 186.0, 'G_VRH': 89.0, 'G_Voigt': -8.0, 'G_Voigt_Reuss_Hill': 89.0, 'K_Reuss': 189.0, 'K_VRH': 189.0, 'K_Voigt': 189.0, 'K_Voigt_Reuss_Hill': 189.0, 'elastic_anisotropy': -5.21, 'elastic_tensor': [[23.0, 273.0, 273.0, 0.0, 0.0, 0.0], [273.0, 23.0, 273.0, 0.0, 0.0, 0.0], [273.0, 273.0, 23.0, 0.0, 0.0, 0.0], [0.0, 0.0, 0.0, 70.0, 0.0, 0.0], [0.0, 0.0, 0.0, 0.0, 70.0, 0.0], [0.0, 0.0, 0.0, 0.0, 0.0, 70.0]], 'homogeneous_poisson': 0.3, 'poisson_ratio': 0.3, 'universal_anisotropy': -5.21, 'elastic_tensor_original': [[22.387863528179, 273.7261961086681, 273.7261961086681, 0.0, 0.0, 0.0], [273.9041507223475, 22.119014258386613, 273.9041507223475, 0.0, 0.0, 0.0], [270.1384963977487, 270.1384963977487, 23.765374167502475, 0.0, 0.0, 0.0], [0.011497090653350148, 0.010803842781279927, 0.01080363618243184, 70.00108509481677, 0.0, 0.0], [0.00011780328709811118, 5.316997062534761e-05, 0.00015418660656585086, 0.0, 70.00098084826917, 0.0], [0.04635917693871162, 0.053905932026025276, 0.059267897662144665, 0.0, 0.0, 69.90268627567963]], 'compliance_tensor': [[-2.1, 1.9, 1.9, -0.0, 0.0, 0.0], [1.9, -2.1, 1.9, 0.0, -0.0, 0.0], [1.9, 1.9, -2.1, 0.0, 0.0, -0.0], [-0.0, 0.0, 0.0, 14.3, 0.0, 0.0], [0.0, -0.0, 0.0, 0.0, 14.3, 0.0], [0.0, 0.0, -0.0, 0.0, 0.0, 14.3]], 'warnings': ['Elastic tensor has a negative eigenvalue', 'c11 and c12 are within 5% or c12 is greater than c11', 'c11 and c13 are within 5% or c13 is greater than c11', 'c11 and c23 are within 5% or c23 is greater than c11', 'One or more K, G below 2 GPa'], 'nsites': 4}",0,89,189,-5.21,0.3,231.4
202,mp-865020,HfMgIr2,"{'Hf': 1.0, 'Mg': 1.0, 'Ir': 2.0}",0.137693981,14.9396073,"{'G_Reuss': 98.0, 'G_VRH': 99.0, 'G_Voigt': 99.0, 'G_Voigt_Reuss_Hill': 99.0, 'K_Reuss': 185.0, 'K_VRH': 185.0, 'K_Voigt': 185.0, 'K_Voigt_Reuss_Hill': 185.0, 'elastic_anisotropy': 0.08, 'elastic_tensor': [[298.0, 128.0, 128.0, 0.0, 0.0, 0.0], [128.0, 298.0, 128.0, 0.0, 0.0, 0.0], [128.0, 128.0, 298.0, 0.0, 0.0, 0.0], [0.0, 0.0, 0.0, 109.0, 0.0, 0.0], [0.0, 0.0, 0.0, 0.0, 109.0, 0.0], [0.0, 0.0, 0.0, 0.0, 0.0, 109.0]], 'homogeneous_poisson': 0.27, 'poisson_ratio': 0.27, 'universal_anisotropy': 0.08, 'elastic_tensor_original': [[297.38713835042546, 127.9305479983456, 127.9305479983456, 0.0, 0.0, 0.0], [128.92942149537726, 298.3863417275695, 128.92942149537726, 0.0, 0.0, 0.0], [128.5222195463556, 128.5222195463556, 297.9785035411569, 0.0, 0.0, 0.0], [-0.00034280002136321446, -0.002084030087184909, -0.0017449900816217912, 109.25305833062039, 0.0, 0.0], [-0.0020275934072277652, -0.0003126566885864934, -0.0016986267462215697, 0.0, 109.25308809404171, 0.0], [0.004046058460116717, 0.0038799855514237403, 0.0022579316448410997, 0.0, 0.0, 109.25235826217042]], 'compliance_tensor': [[4.5, -1.4, -1.4, 0.0, -0.0, -0.0], [-1.4, 4.5, -1.4, -0.0, 0.0, -0.0], [-1.4, -1.4, 4.5, -0.0, -0.0, 0.0], [0.0, -0.0, -0.0, 9.2, -0.0, -0.0], [-0.0, 0.0, -0.0, -0.0, 9.2, -0.0], [-0.0, -0.0, 0.0, -0.0, -0.0, 9.2]], 'warnings': [], 'nsites': 4}",0,99,185,0.08,0.27,251.46
203,mp-865025,HfTaRe2,"{'Hf': 1.0, 'Ta': 1.0, 'Re': 2.0}",0.116286239,17.86085755,"{'G_Reuss': 116.0, 'G_VRH': 117.0, 'G_Voigt': 118.0, 'G_Voigt_Reuss_Hill': 117.0, 'K_Reuss': 273.0, 'K_VRH': 273.0, 'K_Voigt': 273.0, 'K_Voigt_Reuss_Hill': 273.0, 'elastic_anisotropy': 0.1, 'elastic_tensor': [[458.0, 180.0, 180.0, 0.0, 0.0, 0.0], [180.0, 458.0, 180.0, 0.0, 0.0, 0.0], [180.0, 180.0, 458.0, 0.0, 0.0, 0.0], [0.0, 0.0, 0.0, 104.0, 0.0, 0.0], [0.0, 0.0, 0.0, 0.0, 104.0, 0.0], [0.0, 0.0, 0.0, 0.0, 0.0, 104.0]], 'homogeneous_poisson': 0.31, 'poisson_ratio': 0.31, 'universal_anisotropy': 0.1, 'elastic_tensor_original': [[458.48454746792316, 179.71006569816447, 179.71006569816447, 0.0, 0.0, 0.0], [179.70944621658913, 458.48686392131606, 179.70944621658913, 0.0, 0.0, 0.0], [179.70975595737667, 179.70975595737667, 458.48570569461947, 0.0, 0.0, 0.0], [-0.0003870469021136522, -0.00030640364126782515, -0.00047206010610902435, 104.28788212077458, 0.0, 0.0], [-0.00034973539168268124, -0.0002566749161459676, -0.0003233953559981157, 0.0, 104.2871803241386, 0.0], [-1.4421463616546621, 1.442391995921124, 0.00012702278012241767, 0.0, 0.0, 104.28786403017008]], 'compliance_tensor': [[2.8, -0.8, -0.8, 0.0, 0.0, -0.0], [-0.8, 2.8, -0.8, -0.0, 0.0, 0.0], [-0.8, -0.8, 2.8, 0.0, -0.0, 0.0], [0.0, -0.0, 0.0, 9.6, -0.0, -0.0], [0.0, 0.0, -0.0, -0.0, 9.6, -0.0], [-0.0, 0.0, 0.0, -0.0, -0.0, 9.6]], 'warnings': [], 'nsites': 4}",0,117,273,0.1,0.31,306.54
204,mp-865030,HfScRu2,"{'Hf': 1.0, 'Sc': 1.0, 'Ru': 2.0}",0.117531686,10.52003012,"{'G_Reuss': 78.0, 'G_VRH': 80.0, 'G_Voigt': 82.0, 'G_Voigt_Reuss_Hill': 80.0, 'K_Reuss': 178.0, 'K_VRH': 178.0, 'K_Voigt': 178.0, 'K_Voigt_Reuss_Hill': 178.0, 'elastic_anisotropy': 0.31, 'elastic_tensor': [[322.0, 106.0, 106.0, 0.0, 0.0, 0.0], [106.0, 322.0, 106.0, 0.0, 0.0, 0.0], [106.0, 106.0, 322.0, 0.0, 0.0, 0.0], [0.0, 0.0, 0.0, 65.0, 0.0, 0.0], [0.0, 0.0, 0.0, 0.0, 65.0, 0.0], [0.0, 0.0, 0.0, 0.0, 0.0, 65.0]], 'homogeneous_poisson': 0.3, 'poisson_ratio': 0.3, 'universal_anisotropy': 0.31, 'elastic_tensor_original': [[321.801107808916, 106.139366232512, 106.139366232512, 0.0, 0.0, 0.0], [106.13839901610604, 321.80191410514044, 106.13839901610604, 0.0, 0.0, 0.0], [106.13613305612084, 106.13613305612084, 321.7995576008581, 0.0, 0.0, 0.0], [0.00034329326701860004, 0.00033593993510569876, 0.0003487932659551411, 65.45900788163142, 0.0, 0.0], [0.020849349305763328, 0.020856265971094252, 0.02077436598691477, 0.0, 65.45858892504567, 0.0], [0.00025860328337825895, 0.00025396328427402403, 0.000253706617657672, 0.0, 0.0, 65.4589779316372]], 'compliance_tensor': [[3.7, -0.9, -0.9, 0.0, 0.0, 0.0], [-0.9, 3.7, -0.9, 0.0, 0.0, -0.0], [-0.9, -0.9, 3.7, 0.0, 0.0, -0.0], [0.0, 0.0, 0.0, 15.3, 0.0, 0.0], [0.0, 0.0, 0.0, 0.0, 15.3, 0.0], [0.0, -0.0, -0.0, 0.0, 0.0, 15.3]], 'warnings': [], 'nsites': 4}",0,80,178,0.31,0.3,208
205,mp-865038,HfTaTc2,"{'Hf': 1.0, 'Ta': 1.0, 'Tc': 2.0}",0.123758003,13.75278574,"{'G_Reuss': 96.0, 'G_VRH': 99.0, 'G_Voigt': 102.0, 'G_Voigt_Reuss_Hill': 99.0, 'K_Reuss': 227.0, 'K_VRH': 227.0, 'K_Voigt': 227.0, 'K_Voigt_Reuss_Hill': 227.0, 'elastic_anisotropy': 0.31, 'elastic_tensor': [[405.0, 138.0, 138.0, 0.0, 0.0, 0.0], [138.0, 405.0, 138.0, 0.0, 0.0, 0.0], [138.0, 138.0, 405.0, 0.0, 0.0, 0.0], [0.0, 0.0, 0.0, 81.0, 0.0, 0.0], [0.0, 0.0, 0.0, 0.0, 81.0, 0.0], [0.0, 0.0, 0.0, 0.0, 0.0, 81.0]], 'homogeneous_poisson': 0.31, 'poisson_ratio': 0.31, 'universal_anisotropy': 0.31, 'elastic_tensor_original': [[405.4942353108679, 137.56662304353438, 137.56662304353438, 0.0, 0.0, 0.0], [137.56576048822703, 405.49326719490045, 137.56576048822703, 0.0, 0.0, 0.0], [137.56054886798242, 137.56054886798242, 405.4882138056214, 0.0, 0.0, 0.0], [0.005797182774941693, -0.3863592638934807, 0.39747739125507, 81.1912321178598, 0.0, 0.0], [-0.37750357155149444, -0.001566896811922023, 0.37653854742714077, 0.0, 81.19359318820244, 0.0], [0.32166234174508684, -0.29947479034153957, 0.011565315554773086, 0.0, 0.0, 81.18997989625016]], 'compliance_tensor': [[3.0, -0.8, -0.8, 0.0, -0.0, 0.0], [-0.8, 3.0, -0.8, 0.0, 0.0, -0.0], [-0.8, -0.8, 3.0, -0.0, 0.0, 0.0], [0.0, 0.0, -0.0, 12.3, -0.0, -0.0], [-0.0, 0.0, 0.0, -0.0, 12.3, -0.0], [0.0, -0.0, 0.0, -0.0, -0.0, 12.3]], 'warnings': [], 'nsites': 4}",0,99,227,0.31,0.31,259.38
206,mp-865050,HfMgRh2,"{'Hf': 1.0, 'Mg': 1.0, 'Rh': 2.0}",0.133977553,10.44781773,"{'G_Reuss': 71.0, 'G_VRH': 71.0, 'G_Voigt': 71.0, 'G_Voigt_Reuss_Hill': 71.0, 'K_Reuss': 156.0, 'K_VRH': 156.0, 'K_Voigt': 156.0, 'K_Voigt_Reuss_Hill': 156.0, 'elastic_anisotropy': 0.01, 'elastic_tensor': [[246.0, 111.0, 111.0, 0.0, 0.0, 0.0], [111.0, 246.0, 111.0, 0.0, 0.0, 0.0], [111.0, 111.0, 246.0, 0.0, 0.0, 0.0], [0.0, 0.0, 0.0, 74.0, 0.0, 0.0], [0.0, 0.0, 0.0, 0.0, 74.0, 0.0], [0.0, 0.0, 0.0, 0.0, 0.0, 74.0]], 'homogeneous_poisson': 0.3, 'poisson_ratio': 0.3, 'universal_anisotropy': 0.01, 'elastic_tensor_original': [[245.67183229685128, 110.76503989052357, 110.77550703972005, -0.0016754889453526774, -0.0018745691584211065, -0.0011084535829742543], [110.98240827253935, 245.88192305130855, 110.98718007295402, -0.000689705606151815, -0.0006792518939678642, -0.0006597808575336349], [110.9108457501832, 110.90944044408843, 245.80832033225823, -0.0007163585822544074, -0.00047416761677126986, -0.0004773994896220334], [-0.0006378037172012335, -0.00017843344072546237, -0.000725867103537882, 73.88977905142424, 0.0, 0.0], [0.0009179838858337213, -0.003840528978132482, -0.0036960388911705397, 0.0, 73.8886896441019, 0.0], [-0.0008007104819163181, 8.319338340459224e-05, 0.0005341969881789629, 0.0, 0.0, 73.89312363677054]], 'compliance_tensor': [[5.7, -1.8, -1.8, -0.0, 0.0, 0.0], [-1.8, 5.7, -1.8, 0.0, -0.0, 0.0], [-1.8, -1.8, 5.7, 0.0, 0.0, -0.0], [-0.0, 0.0, 0.0, 13.5, -0.0, -0.0], [0.0, -0.0, 0.0, -0.0, 13.5, -0.0], [0.0, 0.0, -0.0, -0.0, -0.0, 13.5]], 'warnings': [], 'nsites': 4}",0,71,156,0.01,0.3,184.6
207,mp-865130,Hf2MoRh,"{'Hf': 2.0, 'Mo': 1.0, 'Rh': 1.0}",0.125243762,13.09614645,"{'G_Reuss': 75.0, 'G_VRH': 78.0, 'G_Voigt': 81.0, 'G_Voigt_Reuss_Hill': 78.0, 'K_Reuss': 174.0, 'K_VRH': 174.0, 'K_Voigt': 174.0, 'K_Voigt_Reuss_Hill': 174.0, 'elastic_anisotropy': 0.38, 'elastic_tensor': [[319.0, 102.0, 102.0, 0.0, 0.0, 0.0], [102.0, 319.0, 102.0, 0.0, 0.0, 0.0], [102.0, 102.0, 319.0, 0.0, 0.0, 0.0], [0.0, 0.0, 0.0, 62.0, 0.0, 0.0], [0.0, 0.0, 0.0, 0.0, 62.0, 0.0], [0.0, 0.0, 0.0, 0.0, 0.0, 62.0]], 'homogeneous_poisson': 0.31, 'poisson_ratio': 0.31, 'universal_anisotropy': 0.38, 'elastic_tensor_original': [[318.72268123796704, 102.0895122605283, 102.0895122605283, 0.0, 0.0, 0.0], [102.09486122205743, 318.7265075873552, 102.09486122205743, 0.0, 0.0, 0.0], [100.77000560057597, 100.77000560057597, 318.72711748023244, 0.0, 0.0, 0.0], [0.0013302187356872453, 0.0013196154009045627, 0.0013259221166161343, 62.05535619596053, 0.0, 0.0], [0.002107363467245318, 0.0020903334713109458, 0.0020808167873397816, 0.0, 62.05533519260823, 0.0], [0.0010826852610472469, 0.0010908951874334207, 0.0011447053358312083, 0.0, 0.0, 62.05536835258972]], 'compliance_tensor': [[3.7, -0.9, -0.9, 0.0, -0.0, 0.0], [-0.9, 3.7, -0.9, 0.0, 0.0, -0.0], [-0.9, -0.9, 3.7, -0.0, 0.0, -0.0], [0.0, 0.0, -0.0, 16.1, -0.0, 0.0], [-0.0, 0.0, 0.0, -0.0, 16.1, -0.0], [0.0, -0.0, -0.0, 0.0, -0.0, 16.1]], 'warnings': [], 'nsites': 4}",0,78,174,0.38,0.31,204.36
208,mp-865131,Hf2OsRh,"{'Hf': 2.0, 'Os': 1.0, 'Rh': 1.0}",0.116996814,15.4901692,"{'G_Reuss': 37.0, 'G_VRH': 46.0, 'G_Voigt': 55.0, 'G_Voigt_Reuss_Hill': 46.0, 'K_Reuss': 202.0, 'K_VRH': 202.0, 'K_Voigt': 202.0, 'K_Voigt_Reuss_Hill': 202.0, 'elastic_anisotropy': 2.53, 'elastic_tensor': [[229.0, 188.0, 188.0, 0.0, 0.0, 0.0], [188.0, 229.0, 188.0, 0.0, 0.0, 0.0], [188.0, 188.0, 229.0, 0.0, 0.0, 0.0], [0.0, 0.0, 0.0, 79.0, 0.0, 0.0], [0.0, 0.0, 0.0, 0.0, 79.0, 0.0], [0.0, 0.0, 0.0, 0.0, 0.0, 79.0]], 'homogeneous_poisson': 0.39, 'poisson_ratio': 0.39, 'universal_anisotropy': 2.53, 'elastic_tensor_original': [[228.87824463362173, 188.0556990141786, 188.0556990141786, 0.0, 0.0, 0.0], [188.0624782371366, 228.88468087252164, 188.0624782371366, 0.0, 0.0, 0.0], [188.0546680055555, 188.0546680055555, 228.87771026632586, 0.0, 0.0, 0.0], [0.0001179867434812914, 0.00012579341523010415, 0.00010630673587623058, 78.55881594466382, 0.0, 0.0], [0.00012608674875457361, 0.00012133674566239737, 0.0001183334103727125, 0.0, 78.5588434346817, 0.0], [1.956334607203226e-05, 3.7096690817951134e-05, 1.0753340335528624e-05, 0.0, 0.0, 78.55885566802301]], 'compliance_tensor': [[16.9, -7.6, -7.6, -0.0, 0.0, 0.0], [-7.6, 16.9, -7.6, 0.0, -0.0, 0.0], [-7.6, -7.6, 16.9, 0.0, 0.0, -0.0], [-0.0, 0.0, 0.0, 12.7, -0.0, -0.0], [0.0, -0.0, 0.0, -0.0, 12.7, -0.0], [0.0, 0.0, -0.0, -0.0, -0.0, 12.7]], 'warnings': [], 'nsites': 4}",0,46,202,2.53,0.39,127.88