,mp_id,Formula,Composition,IPF,Density,Elastic_Tensor,E_above_Hull,G_VRH,K_VRH,Elastic_Anisotropy,poisson_ratio,Y_Modulus
27,mp-12884,Hf5Te4,"{'Hf': 5.0, 'Te': 4.0}",0.223888322,10.61996316,"{'G_Reuss': 33.0, 'G_VRH': 36.0, 'G_Voigt': 38.0, 'G_Voigt_Reuss_Hill': 36.0, 'K_Reuss': 76.0, 'K_VRH': 76.0, 'K_Voigt': 76.0, 'K_Voigt_Reuss_Hill': 76.0, 'elastic_anisotropy': 0.79, 'elastic_tensor': [[103.0, 63.0, 63.0, 0.0, 0.0, 0.0], [63.0, 113.0, 53.0, 7.0, 0.0, 0.0], [63.0, 53.0, 113.0, -7.0, 0.0, 0.0], [0.0, 7.0, -7.0, 39.0, 0.0, 0.0], [0.0, 0.0, 0.0, 0.0, 51.0, 0.0], [0.0, 0.0, 0.0, 0.0, 0.0, 51.0]], 'homogeneous_poisson': 0.3, 'poisson_ratio': 0.3, 'universal_anisotropy': 0.79, 'elastic_tensor_original': [[113.11676811827336, 52.199340509643264, 62.97027648715945, 0.0, 0.0, -5.703836860572152], [53.137403289668406, 112.29822810484293, 62.94159684598876, 0.0, 0.0, 5.87752680350734], [63.65427315222039, 63.65427315222039, 102.51997674255075, 0.0, 0.0, 1.1919644528452985e-07], [0.01859736283969344, 0.1428542308985416, -0.0839115463062415, 51.48109694673137, 0.2173062523117264, 0.10638900252022222], [-0.1072839866318696, 0.0009787575178346992, 0.10711739982033375, -0.21943909416653284, 51.5094996314315, 0.11020147250236842], [-7.375473372021583, 7.287693598165392, -0.02694251293290842, 0.0, 0.0, 39.32032691726134]], 'compliance_tensor': [[18.5, -7.1, -7.1, -0.0, -0.0, -0.0], [-7.1, 14.4, -2.9, -2.9, 0.0, -0.0], [-7.1, -2.9, 14.4, 2.9, 0.0, 0.0], [-0.0, -2.9, 2.9, 26.4, 0.0, 0.0], [-0.0, 0.0, 0.0, 0.0, 19.4, 0.0], [-0.0, -0.0, 0.0, 0.0, 0.0, 19.4]], 'warnings': [], 'nsites': 9}",0,36,76,0.79,0.3,93.6
28,mp-12952,HfGaAu,"{'Hf': 1.0, 'Ga': 1.0, 'Au': 1.0}",0.17170595,13.3014773,"{'G_Reuss': 61.0, 'G_VRH': 62.0, 'G_Voigt': 62.0, 'G_Voigt_Reuss_Hill': 62.0, 'K_Reuss': 128.0, 'K_VRH': 131.0, 'K_Voigt': 134.0, 'K_Voigt_Reuss_Hill': 131.0, 'elastic_anisotropy': 0.16, 'elastic_tensor': [[231.0, 122.0, 81.0, 0.0, 0.0, 0.0], [122.0, 231.0, 81.0, 0.0, 0.0, 0.0], [81.0, 81.0, 173.0, 0.0, 0.0, 0.0], [0.0, 0.0, 0.0, 71.0, 0.0, 0.0], [0.0, 0.0, 0.0, 0.0, 71.0, 0.0], [0.0, 0.0, 0.0, 0.0, 0.0, 54.0]], 'homogeneous_poisson': 0.3, 'poisson_ratio': 0.3, 'universal_anisotropy': 0.16, 'elastic_tensor_original': [[231.29352347658278, 121.7647998249775, 80.9080707841943, 0.0, 0.0, 0.0], [122.08677884290623, 230.32233040541945, 81.31783146792883, 0.0, 0.0, 0.0], [81.23099219788038, 81.2310360165197, 172.79721304546345, 0.0, 0.0, 0.0], [4.288978999794439e-05, 1.7966711435507054e-05, -1.4833481858301083e-05, 70.58277289829441, 0.0, 0.0], [-0.00013813672368521963, -0.00012198671986386731, 1.5676342121914566e-05, 0.0, 70.57871573173912, 0.0], [-0.00013653971521218158, -9.162983126720714e-05, -4.155988641589498e-05, 0.0, 0.0, 53.983314364374536]], 'compliance_tensor': [[6.4, -2.8, -1.7, 0.0, -0.0, 0.0], [-2.8, 6.4, -1.7, -0.0, -0.0, 0.0], [-1.7, -1.7, 7.4, -0.0, 0.0, -0.0], [0.0, -0.0, 0.0, 14.2, 0.0, -0.0], [0.0, -0.0, 0.0, 0.0, 14.2, -0.0], [0.0, 0.0, -0.0, -0.0, 0.0, 18.4]], 'warnings': [], 'nsites': 6}",0,62,131,0.16,0.3,161.2
29,mp-13155,Hf2Ag,"{'Hf': 2.0, 'Ag': 1.0}",0.168380634,12.35497736,"{'G_Reuss': 50.0, 'G_VRH': 53.0, 'G_Voigt': 56.0, 'G_Voigt_Reuss_Hill': 53.0, 'K_Reuss': 111.0, 'K_VRH': 111.0, 'K_Voigt': 112.0, 'K_Voigt_Reuss_Hill': 111.0, 'elastic_anisotropy': 0.57, 'elastic_tensor': [[183.0, 64.0, 91.0, 0.0, 0.0, 0.0], [64.0, 183.0, 91.0, 0.0, 0.0, 0.0], [91.0, 91.0, 148.0, 0.0, 0.0, 0.0], [0.0, 0.0, 0.0, 72.0, 0.0, 0.0], [0.0, 0.0, 0.0, 0.0, 72.0, 0.0], [0.0, 0.0, 0.0, 0.0, 0.0, 47.0]], 'homogeneous_poisson': 0.29, 'poisson_ratio': 0.29, 'universal_anisotropy': 0.57, 'elastic_tensor_original': [[183.29560482248505, 63.62558699596848, 90.30753200956022, 0.0, 0.0, 0.0], [63.62396516946383, 183.29499030805886, 90.30617485502232, 0.0, 0.0, 0.0], [90.95254142616162, 90.95254142616162, 147.54353374678155, 0.0, 0.0, 0.0], [2.3183331042701543e-05, -7.38866593700837e-05, -2.041333131763946e-05, 71.93267540239702, 0.0, 0.0], [-5.113332828866726e-06, 8.197999190222036e-05, -4.893999516632931e-05, 0.0, 71.93256535907454, 0.0], [-5.201333086117236e-05, 0.00016919999195783098, -8.906666243214748e-05, 0.0, 0.0, 47.157206385354506]], 'compliance_tensor': [[7.9, -0.5, -4.5, 0.0, -0.0, 0.0], [-0.5, 7.9, -4.5, 0.0, 0.0, -0.0], [-4.5, -4.5, 12.3, -0.0, 0.0, -0.0], [0.0, 0.0, -0.0, 13.9, 0.0, -0.0], [-0.0, 0.0, 0.0, 0.0, 13.9, 0.0], [0.0, -0.0, -0.0, -0.0, 0.0, 21.2]], 'warnings': [], 'nsites': 3}",0,53,111,0.57,0.29,136.74
30,mp-13156,HfAg,"{'Hf': 1.0, 'Ag': 1.0}",0.201150229,12.03517754,"{'G_Reuss': 44.0, 'G_VRH': 50.0, 'G_Voigt': 56.0, 'G_Voigt_Reuss_Hill': 50.0, 'K_Reuss': 117.0, 'K_VRH': 117.0, 'K_Voigt': 117.0, 'K_Voigt_Reuss_Hill': 117.0, 'elastic_anisotropy': 1.38, 'elastic_tensor': [[159.0, 96.0, 100.0, 0.0, 0.0, 0.0], [96.0, 159.0, 100.0, 0.0, 0.0, 0.0], [100.0, 100.0, 145.0, 0.0, 0.0, 0.0], [0.0, 0.0, 0.0, 73.0, 0.0, 0.0], [0.0, 0.0, 0.0, 0.0, 73.0, 0.0], [0.0, 0.0, 0.0, 0.0, 0.0, 80.0]], 'homogeneous_poisson': 0.31, 'poisson_ratio': 0.31, 'universal_anisotropy': 1.38, 'elastic_tensor_original': [[159.30851870335266, 96.20425551065664, 100.5225093822431, 0.0, 0.0, 0.0], [96.2037860378474, 159.30889361040082, 100.52148270485033, 0.0, 0.0, 0.0], [99.82039999884199, 99.82039999884199, 144.71386423301976, 0.0, 0.0, 0.0], [2.8503305009994436e-05, 1.31766535764163e-05, -3.8176628730736746e-05, 73.10361709728309, 0.0, 0.0], [6.316327057052442e-05, 0.00011546321859993799, 8.313658405485084e-05, 0.0, 73.10368510721551, 0.0], [8.866991271722436e-05, -3.490663230585515e-05, 0.00019606314033780288, 0.0, 0.0, 80.01378142054804]], 'compliance_tensor': [[12.2, -3.6, -5.9, 0.0, -0.0, 0.0], [-3.6, 12.2, -5.9, 0.0, -0.0, -0.0], [-5.9, -5.9, 15.1, 0.0, 0.0, 0.0], [0.0, 0.0, 0.0, 13.7, 0.0, 0.0], [-0.0, -0.0, 0.0, 0.0, 13.7, -0.0], [0.0, -0.0, 0.0, 0.0, -0.0, 12.5]], 'warnings': [], 'nsites': 4}",0,50,117,1.38,0.31,131
31,mp-1400,HfW2,"{'Hf': 1.0, 'W': 2.0}",0.114459834,16.35379926,"{'G_Reuss': 93.0, 'G_VRH': 94.0, 'G_Voigt': 95.0, 'G_Voigt_Reuss_Hill': 94.0, 'K_Reuss': 223.0, 'K_VRH': 223.0, 'K_Voigt': 223.0, 'K_Voigt_Reuss_Hill': 223.0, 'elastic_anisotropy': 0.08, 'elastic_tensor': [[331.0, 169.0, 169.0, 0.0, 0.0, 0.0], [169.0, 331.0, 169.0, 0.0, 0.0, 0.0], [169.0, 169.0, 331.0, 0.0, 0.0, 0.0], [0.0, 0.0, 0.0, 104.0, 0.0, 0.0], [0.0, 0.0, 0.0, 0.0, 104.0, 0.0], [0.0, 0.0, 0.0, 0.0, 0.0, 104.0]], 'homogeneous_poisson': 0.32, 'poisson_ratio': 0.32, 'universal_anisotropy': 0.08, 'elastic_tensor_original': [[330.75357386396047, 168.93551402719447, 168.9348745840175, 0.19400147943370857, 0.36801548936336487, 0.36702825254692417], [168.93630481388493, 330.75426363098313, 168.9371088186585, 0.37004123026027774, 0.19431221106203234, 0.37036358073870734], [168.93926597683188, 168.93965040159577, 330.7611675872144, 0.3734271721611243, 0.3734457245706861, 0.197432822234653], [0.18121287351336102, 0.06909837756594103, 0.03399849894816855, 103.98840217691487, -0.08679340895431542, -0.07088308686251854], [0.06971138370230559, 0.18180731913965786, 0.034467840795117353, -0.0865252563568798, 103.98866475213724, -0.07100282001867335], [0.06953754994364858, 0.03469812964594936, 0.18192134457680456, -0.0866723012462888, -0.0709105571621772, 103.98839408684306]], 'compliance_tensor': [[4.6, -1.6, -1.6, 0.0, -0.0, -0.0], [-1.6, 4.6, -1.6, -0.0, 0.0, -0.0], [-1.6, -1.6, 4.6, -0.0, -0.0, 0.0], [0.0, -0.0, -0.0, 9.6, -0.0, -0.0], [-0.0, 0.0, -0.0, -0.0, 9.6, -0.0], [-0.0, -0.0, 0.0, -0.0, -0.0, 9.6]], 'warnings': [], 'nsites': 6}",0,94,223,0.08,0.32,248.16
32,mp-15622,HfSe3,"{'Hf': 1.0, 'Se': 3.0}",0.151103734,6.66031974,"{'G_Reuss': 2.0, 'G_VRH': 10.0, 'G_Voigt': 18.0, 'G_Voigt_Reuss_Hill': 10.0, 'K_Reuss': 5.0, 'K_VRH': 16.0, 'K_Voigt': 26.0, 'K_Voigt_Reuss_Hill': 16.0, 'elastic_anisotropy': 38.73, 'elastic_tensor': [[6.0, 2.0, 1.0, 0.0, -0.0, 0.0], [2.0, 114.0, 14.0, 0.0, 0.0, 0.0], [1.0, 14.0, 80.0, 0.0, -0.0, 0.0], [0.0, 0.0, 0.0, 25.0, 0.0, 0.0], [-0.0, 0.0, -0.0, 0.0, 1.0, 0.0], [0.0, 0.0, 0.0, 0.0, 0.0, 1.0]], 'homogeneous_poisson': 0.24, 'poisson_ratio': 0.24, 'universal_anisotropy': 38.73, 'elastic_tensor_original': [[5.6326782585607615, 1.255908191990499, 0.37243498968324495, 0.0, 0.38059181507782675, 0.0], [1.96630575860578, 114.16160075634279, 14.977919021198622, 0.0, -0.36720079833357344, 0.0], [1.0912462390232962, 13.727495525454191, 79.79979947499368, 0.0, 0.9017706715047479, 0.0], [-0.03227786232095668, -0.029104140781747955, 0.013272403103587667, 24.996939503149168, -0.0072338001749536725, -0.05106858143417991], [-0.26333757794614604, 9.831722825523097e-06, -0.35868422977496545, 0.0, 0.9564071416469341, 0.0], [-0.055827381049197655, -0.02864115280862081, -0.037229817239807894, -0.03533953828737198, -0.02225851087937851, 1.111821703009105]], 'compliance_tensor': [[178.5, -2.4, -1.2, 0.0, 10.7, 0.0], [-2.4, 9.0, -1.6, 0.0, -2.3, 0.0], [-1.2, -1.6, 12.8, 0.0, 4.5, 0.0], [0.0, 0.0, 0.0, 40.0, 0.0, -1.0], [10.7, -2.3, 4.5, 0.0, 1047.8, 0.0], [0.0, 0.0, 0.0, -1.0, 0.0, 899.5]], 'warnings': ['c11 and c23 are within 5% or c23 is greater than c11'], 'nsites': 8}",0,10,16,38.73,0.24,24.8
33,mp-15964,Hf3Sb,"{'Hf': 3.0, 'Sb': 1.0}",0.112406741,12.13120119,"{'G_Reuss': 48.0, 'G_VRH': 49.0, 'G_Voigt': 50.0, 'G_Voigt_Reuss_Hill': 49.0, 'K_Reuss': 114.0, 'K_VRH': 114.0, 'K_Voigt': 114.0, 'K_Voigt_Reuss_Hill': 114.0, 'elastic_anisotropy': 0.2, 'elastic_tensor': [[194.0, 70.0, 70.0, 0.0, 0.0, 0.0], [70.0, 174.0, 102.0, 3.0, 0.0, 0.0], [70.0, 102.0, 174.0, -3.0, 0.0, 0.0], [0.0, 3.0, -3.0, 54.0, 0.0, 0.0], [0.0, 0.0, 0.0, 0.0, 47.0, 0.0], [0.0, 0.0, 0.0, 0.0, 0.0, 47.0]], 'homogeneous_poisson': 0.31, 'poisson_ratio': 0.31, 'universal_anisotropy': 0.2, 'elastic_tensor_original': [[173.97682041505576, 101.97581263263031, 69.27828035412016, 0.0, 0.0, -2.47931011358425], [102.26334532763084, 173.97733623019639, 69.36626535889371, 0.0, 0.0, 2.5307002203672977], [70.52846427336364, 70.52846427336364, 194.42367690688405, 0.0, 0.0, 0.0001188931408775411], [-0.007022081741640948, 0.07125762376876575, 0.06054453234422418, 47.1315109912643, 0.4132767421017566, 0.015284861026653367], [-0.09273179823402382, -0.014488895055473856, -0.01130362828080036, -0.35802043316017335, 47.12406945053849, -0.022182195074200134], [-3.618039682370712, 3.8892399135068074, -0.14498912347004658, 0.0, 0.0, 53.964224769482335]], 'compliance_tensor': [[6.3, -1.6, -1.6, -0.0, -0.0, -0.0], [-1.6, 9.2, -4.8, -0.8, 0.0, 0.0], [-1.6, -4.8, 9.2, 0.8, -0.0, 0.0], [-0.0, -0.8, 0.8, 18.6, 0.0, 0.0], [-0.0, 0.0, -0.0, 0.0, 21.2, -0.0], [-0.0, 0.0, 0.0, 0.0, -0.0, 21.2]], 'warnings': [], 'nsites': 16}",0,49,114,0.2,0.31,128.38
34,mp-1689,HfRe2,"{'Hf': 1.0, 'Re': 2.0}",0.10720468,17.50430796,"{'G_Reuss': 73.0, 'G_VRH': 75.0, 'G_Voigt': 76.0, 'G_Voigt_Reuss_Hill': 75.0, 'K_Reuss': 262.0, 'K_VRH': 262.0, 'K_Voigt': 262.0, 'K_Voigt_Reuss_Hill': 262.0, 'elastic_anisotropy': 0.16, 'elastic_tensor': [[359.0, 232.0, 194.0, 0.0, 0.0, 0.0], [232.0, 359.0, 194.0, 0.0, 0.0, 0.0], [194.0, 194.0, 402.0, 0.0, 0.0, 0.0], [0.0, 0.0, 0.0, 74.0, 0.0, 0.0], [0.0, 0.0, 0.0, 0.0, 74.0, 0.0], [0.0, 0.0, 0.0, 0.0, 0.0, 64.0]], 'homogeneous_poisson': 0.37, 'poisson_ratio': 0.37, 'universal_anisotropy': 0.16, 'elastic_tensor_original': [[357.1541514402605, 234.18644352518763, 194.93013993891995, 0.0, 0.0, -2.622689400393042e-05], [231.8260990865145, 358.7370981944894, 194.9638391809463, 0.0, 0.0, 0.0], [192.9957101153445, 192.9957452328823, 402.0794933663816, 0.0, 0.0, 0.0], [-0.00420984608030461, -0.0008631231023826561, -0.00031444970705220906, 74.31897261292247, 0.0, 0.0], [0.00042623327112996514, 0.0006771799011740725, 0.00018612997283728807, 3.9999994162483934e-08, 74.07472162968898, 0.0], [-0.018715951832866107, -0.026834778305397006, 0.0236439884942976, 0.0, 0.0, 64.83747393568635]], 'compliance_tensor': [[5.2, -2.7, -1.2, 0.0, 0.0, 0.0], [-2.7, 5.2, -1.2, -0.0, -0.0, 0.0], [-1.2, -1.2, 3.6, 0.0, 0.0, -0.0], [-0.0, 0.0, 0.0, 13.5, 0.0, 0.0], [-0.0, 0.0, -0.0, 0.0, 13.5, -0.0], [0.0, 0.0, -0.0, -0.0, -0.0, 15.7]], 'warnings': [], 'nsites': 12}",0,75,262,0.16,0.37,205.5
35,mp-17045,Hf3Rh5,"{'Hf': 3.0, 'Rh': 5.0}",0.124066753,13.20823629,"{'G_Reuss': 65.0, 'G_VRH': 67.0, 'G_Voigt': 69.0, 'G_Voigt_Reuss_Hill': 67.0, 'K_Reuss': 194.0, 'K_VRH': 194.0, 'K_Voigt': 194.0, 'K_Voigt_Reuss_Hill': 194.0, 'elastic_anisotropy': 0.31, 'elastic_tensor': [[300.0, 126.0, 147.0, 0.0, 0.0, 0.0], [126.0, 298.0, 170.0, 0.0, 0.0, 0.0], [147.0, 170.0, 264.0, 0.0, 0.0, 0.0], [0.0, 0.0, 0.0, 80.0, 0.0, 0.0], [0.0, 0.0, 0.0, 0.0, 77.0, 0.0], [0.0, 0.0, 0.0, 0.0, 0.0, 48.0]], 'homogeneous_poisson': 0.35, 'poisson_ratio': 0.35, 'universal_anisotropy': 0.31, 'elastic_tensor_original': [[263.9956836941983, 146.97160122707066, 169.68918862684146, 0.0, 0.0, 0.0], [147.20962331028295, 299.65695939407885, 125.56287677663127, 0.0, 0.0, 0.0], [169.522245354808, 126.16186843315356, 297.8413693839651, 0.0, 0.0, 0.0], [0.00042050010062813715, 0.00022121338627110023, -0.00020539004915064345, 47.82012645697816, 0.0, 0.0], [-0.0007787502034645279, -0.000497717281394677, -0.00022762656070085421, 0.0, 79.76201685338154, 0.0], [0.014556422801190533, 0.03635238533189718, 0.022663151150231722, 0.0, 0.0, 77.35980724817122]], 'compliance_tensor': [[4.7, -0.8, -2.1, 0.0, 0.0, -0.0], [-0.8, 5.4, -3.0, 0.0, 0.0, -0.0], [-2.1, -3.0, 6.9, 0.0, 0.0, 0.0], [0.0, 0.0, 0.0, 12.5, 0.0, 0.0], [0.0, 0.0, 0.0, 0.0, 12.9, 0.0], [-0.0, -0.0, 0.0, 0.0, 0.0, 20.9]], 'warnings': [], 'nsites': 16}",0,67,194,0.31,0.35,180.9
36,mp-1994,HfB2,"{'Hf': 1.0, 'B': 2.0}",0.105423416,11.1217189,"{'G_Reuss': 239.0, 'G_VRH': 242.0, 'G_Voigt': 246.0, 'G_Voigt_Reuss_Hill': 242.0, 'K_Reuss': 250.0, 'K_VRH': 251.0, 'K_Voigt': 252.0, 'K_Voigt_Reuss_Hill': 251.0, 'elastic_anisotropy': 0.15, 'elastic_tensor': [[594.0, 65.0, 125.0, 0.0, 0.0, 0.0], [65.0, 594.0, 125.0, 0.0, 0.0, 0.0], [125.0, 125.0, 448.0, 0.0, 0.0, 0.0], [0.0, 0.0, 0.0, 262.0, 0.0, 0.0], [0.0, 0.0, 0.0, 0.0, 262.0, 0.0], [0.0, 0.0, 0.0, 0.0, 0.0, 264.0]], 'homogeneous_poisson': 0.13, 'poisson_ratio': 0.13, 'universal_anisotropy': 0.15, 'elastic_tensor_original': [[595.3723299392735, 63.87664096161159, 125.14692030160526, 0.0, 0.0, 0.0], [64.0746645390799, 594.6624011598497, 123.9473139258059, 0.0, 0.0, 0.0], [124.79575387699342, 124.79578083419807, 448.2867616039328, 0.0, 0.0, 0.0], [-6.280017645081404e-05, -4.8553469752799594e-05, -4.539346087346804e-05, 261.74054041275366, 0.0, 0.0], [1.350669091167895e-05, 9.767017528410264e-05, -9.333349854605079e-08, 0.0, 261.4405577435309, 0.0], [-1.4033255789733229e-05, 3.072329337830847e-05, -9.054978278716231e-05, 0.0, 0.0, 263.17168918451887]], 'compliance_tensor': [[1.8, -0.1, -0.5, 0.0, 0.0, -0.0], [-0.1, 1.8, -0.5, 0.0, 0.0, -0.0], [-0.5, -0.5, 2.5, -0.0, -0.0, 0.0], [0.0, 0.0, -0.0, 3.8, -0.0, -0.0], [0.0, 0.0, -0.0, -0.0, 3.8, -0.0], [-0.0, -0.0, 0.0, -0.0, -0.0, 3.8]], 'warnings': [], 'nsites': 3}",0,242,251,0.15,0.13,546.92
37,mp-2025,HfBe5,"{'Hf': 1.0, 'Be': 5.0}",0.112734943,6.08809749,"{'G_Reuss': 116.0, 'G_VRH': 120.0, 'G_Voigt': 124.0, 'G_Voigt_Reuss_Hill': 120.0, 'K_Reuss': 131.0, 'K_VRH': 131.0, 'K_Voigt': 131.0, 'K_Voigt_Reuss_Hill': 131.0, 'elastic_anisotropy': 0.35, 'elastic_tensor': [[263.0, 83.0, 53.0, 0.0, 0.0, 0.0], [83.0, 263.0, 53.0, 0.0, 0.0, 0.0], [53.0, 53.0, 279.0, 0.0, 0.0, 0.0], [0.0, 0.0, 0.0, 162.0, 0.0, 0.0], [0.0, 0.0, 0.0, 0.0, 162.0, 0.0], [0.0, 0.0, 0.0, 0.0, 0.0, 90.0]], 'homogeneous_poisson': 0.15, 'poisson_ratio': 0.15, 'universal_anisotropy': 0.35, 'elastic_tensor_original': [[261.94501166588464, 83.51889130274184, 53.00951134092936, 0.0, 0.0, -1.630907878623011e-05], [84.13955095561293, 261.5604932916838, 53.503211506634166, 0.0, 0.0, -6.669484578977292e-05], [52.12993458160149, 52.12994578163291, 279.4166709035149, 0.0, 0.0, -1.3279818824754104e-05], [-0.00013218301611994497, 0.00015462024362303915, -9.482616505872068e-05, 161.67327551438828, -4.1213345900168304e-05, 0.0], [0.00011817012043273756, 9.034675874205602e-05, -0.00021215354954566524, -6.666673460895983e-09, 161.66856629516232, 0.0], [-0.23597239063650763, -0.1998775028664651, -0.03167165670463797, 0.0, 0.0, 90.98753716468183]], 'compliance_tensor': [[4.3, -1.2, -0.6, -0.0, 0.0, 0.0], [-1.2, 4.3, -0.6, 0.0, -0.0, 0.0], [-0.6, -0.6, 3.8, -0.0, -0.0, -0.0], [-0.0, 0.0, -0.0, 6.2, 0.0, -0.0], [0.0, -0.0, -0.0, 0.0, 6.2, -0.0], [0.0, 0.0, -0.0, 0.0, -0.0, 11.1]], 'warnings': [], 'nsites': 6}",0,120,131,0.35,0.15,276
38,mp-2027,HfCo,"{'Hf': 1.0, 'Co': 1.0}",0.14307834,12.61270717,"{'G_Reuss': 56.0, 'G_VRH': 56.0, 'G_Voigt': 56.0, 'G_Voigt_Reuss_Hill': 56.0, 'K_Reuss': 153.0, 'K_VRH': 153.0, 'K_Voigt': 153.0, 'K_Voigt_Reuss_Hill': 153.0, 'elastic_anisotropy': 0.0, 'elastic_tensor': [[230.0, 114.0, 114.0, 0.0, 0.0, 0.0], [114.0, 230.0, 114.0, 0.0, 0.0, 0.0], [114.0, 114.0, 230.0, 0.0, 0.0, 0.0], [0.0, 0.0, 0.0, 55.0, 0.0, 0.0], [0.0, 0.0, 0.0, 0.0, 55.0, 0.0], [0.0, 0.0, 0.0, 0.0, 0.0, 55.0]], 'homogeneous_poisson': 0.34, 'poisson_ratio': 0.34, 'universal_anisotropy': 0.0, 'elastic_tensor_original': [[229.99394968474195, 114.2556491387504, 114.2556491387504, 0.0, 0.0, 0.0], [114.25572857042067, 229.99422958375746, 114.25572857042067, 0.0, 0.0, 0.0], [114.28392257606579, 114.28392257606579, 230.02166138211635, 0.0, 0.0, 0.0], [5.463999243474517e-05, 0.00011742331152840847, 8.396666712112463e-05, 54.81734098023255, 0.0, 0.0], [0.00012043961853681705, -5.527017240279649e-06, -2.46802720194431e-05, 0.0, 54.81734093336223, 0.0], [-9.173399750175307e-06, -9.973197238271364e-06, 3.8369967246242666e-05, 0.0, 0.0, 54.81739210370992]], 'compliance_tensor': [[6.5, -2.2, -2.2, 0.0, -0.0, -0.0], [-2.2, 6.5, -2.2, -0.0, 0.0, -0.0], [-2.2, -2.2, 6.5, 0.0, -0.0, 0.0], [0.0, -0.0, 0.0, 18.2, -0.0, -0.0], [-0.0, 0.0, -0.0, -0.0, 18.2, -0.0], [-0.0, -0.0, 0.0, -0.0, -0.0, 18.2]], 'warnings': [], 'nsites': 2}",0,56,153,0,0.34,150.08
39,mp-2105,Hf3Si2,"{'Hf': 3.0, 'Si': 2.0}",0.099590548,10.82743835,"{'G_Reuss': 91.0, 'G_VRH': 95.0, 'G_Voigt': 98.0, 'G_Voigt_Reuss_Hill': 95.0, 'K_Reuss': 144.0, 'K_VRH': 145.0, 'K_Voigt': 146.0, 'K_Voigt_Reuss_Hill': 145.0, 'elastic_anisotropy': 0.42, 'elastic_tensor': [[198.0, 102.0, 102.0, 0.0, 0.0, 0.0], [102.0, 292.0, 61.0, 0.0, 0.0, 0.0], [102.0, 61.0, 292.0, 0.0, 0.0, 0.0], [0.0, 0.0, 0.0, 89.0, 0.0, 0.0], [0.0, 0.0, 0.0, 0.0, 115.0, 0.0], [0.0, 0.0, 0.0, 0.0, 0.0, 115.0]], 'homogeneous_poisson': 0.23, 'poisson_ratio': 0.23, 'universal_anisotropy': 0.42, 'elastic_tensor_original': [[292.3202692375211, 61.01708790323577, 102.61739278362437, 0.0, 0.0, 0.0], [61.016100422982475, 292.31905184847267, 102.61716980852692, 0.0, 0.0, 0.0], [101.15621475841239, 101.15621475841239, 198.4938001584395, 0.0, 0.0, 0.0], [0.00010738999616606145, -8.085333044790849e-05, -8.029999713343256e-05, 114.94139726653154, 0.0, 0.0], [0.0001885466599340119, -4.411999842488131e-05, 8.203666373790746e-05, 0.0, 114.94137355986571, 0.0], [5.0519990371708005e-05, 3.5663326536172234e-05, -0.00015450663721533727, 0.0, 0.0, 88.82140955602597]], 'compliance_tensor': [[7.2, -2.1, -2.1, 0.0, 0.0, 0.0], [-2.1, 4.2, -0.2, 0.0, 0.0, -0.0], [-2.1, -0.2, 4.2, 0.0, 0.0, -0.0], [0.0, 0.0, 0.0, 11.3, 0.0, 0.0], [0.0, 0.0, 0.0, 0.0, 8.7, 0.0], [0.0, -0.0, -0.0, 0.0, 0.0, 8.7]], 'warnings': [], 'nsites': 10}",0,95,145,0.42,0.23,233.7