,mp_id,Formula,Composition,IPF,Density,Elastic_Tensor,E_above_Hull,G_VRH,K_VRH,Elastic_Anisotropy,poisson_ratio,Y_Modulus
40,mp-21075,HfC,"{'Hf': 1.0, 'C': 1.0}",0.106749266,12.57416751,"{'G_Reuss': 179.0, 'G_VRH': 180.0, 'G_Voigt': 180.0, 'G_Voigt_Reuss_Hill': 180.0, 'K_Reuss': 236.0, 'K_VRH': 236.0, 'K_Voigt': 236.0, 'K_Voigt_Reuss_Hill': 236.0, 'elastic_anisotropy': 0.02, 'elastic_tensor': [[496.0, 106.0, 106.0, 0.0, 0.0, 0.0], [106.0, 496.0, 106.0, 0.0, 0.0, 0.0], [106.0, 106.0, 496.0, 0.0, 0.0, 0.0], [0.0, 0.0, 0.0, 171.0, 0.0, 0.0], [0.0, 0.0, 0.0, 0.0, 171.0, 0.0], [0.0, 0.0, 0.0, 0.0, 0.0, 171.0]], 'homogeneous_poisson': 0.2, 'poisson_ratio': 0.2, 'universal_anisotropy': 0.02, 'elastic_tensor_original': [[495.7586907921211, 106.37181016721573, 106.37181016721573, 0.0, 0.0, 0.0], [106.3707918481335, 495.75685267504053, 106.3707918481335, 0.0, 0.0, 0.0], [106.36916482342957, 106.36916482342957, 495.75597301313894, 0.0, 0.0, 0.0], [0.00019143333891008939, 0.00026791992706685973, 0.00011655999772550522, 170.52440731291372, 0.0, 0.0], [-0.0001568432926604373, -0.00012536002523625797, -0.00015605330274059308, 0.0, 170.52427718287998, 0.0], [0.00029200067945398596, 0.0002260305782643473, 1.71768136838453e-05, 0.0, 0.0, 170.52434052630457]], 'compliance_tensor': [[2.2, -0.4, -0.4, 0.0, -0.0, 0.0], [-0.4, 2.2, -0.4, 0.0, 0.0, -0.0], [-0.4, -0.4, 2.2, -0.0, 0.0, 0.0], [0.0, 0.0, -0.0, 5.9, 0.0, 0.0], [-0.0, 0.0, 0.0, 0.0, 5.9, 0.0], [0.0, -0.0, 0.0, 0.0, 0.0, 5.9]], 'warnings': [], 'nsites': 2}",0,180,236,0.02,0.2,432
41,mp-21104,Hf5Sn3,"{'Hf': 5.0, 'Sn': 3.0}",0.113009666,11.68748378,"{'G_Reuss': 44.0, 'G_VRH': 47.0, 'G_Voigt': 49.0, 'G_Voigt_Reuss_Hill': 47.0, 'K_Reuss': 113.0, 'K_VRH': 113.0, 'K_Voigt': 114.0, 'K_Voigt_Reuss_Hill': 113.0, 'elastic_anisotropy': 0.62, 'elastic_tensor': [[192.0, 111.0, 49.0, 0.0, 0.0, 0.0], [111.0, 192.0, 49.0, 0.0, 0.0, 0.0], [49.0, 49.0, 219.0, 0.0, 0.0, 0.0], [0.0, 0.0, 0.0, 38.0, 0.0, 0.0], [0.0, 0.0, 0.0, 0.0, 38.0, 0.0], [0.0, 0.0, 0.0, 0.0, 0.0, 40.0]], 'homogeneous_poisson': 0.32, 'poisson_ratio': 0.32, 'universal_anisotropy': 0.62, 'elastic_tensor_original': [[192.24299412054862, 111.10741245011523, 49.22111969489219, 0.0, 0.0, 1.1385156343134567e-05], [110.97236808581003, 192.96064247201946, 48.9803101553589, 0.0, 0.0, 1.3198554881364148e-05], [49.31868491262041, 49.31869059226536, 219.27034796461007, 0.0, 0.0, 3.3597674446590544e-06], [0.011225815217592775, 0.014388307287304114, 0.0013426940881806789, 37.963982471513496, 2.5933325894137012e-06, 0.0], [0.014731741422329026, 0.15000393660024866, -0.11071712058592169, 0.0, 37.4153050172299, 6.666664293407468e-09], [-0.09972789393560101, 0.006801483272513262, -0.11336086757001312, 0.0, 0.0, 39.88396402357118]], 'compliance_tensor': [[8.0, -4.4, -0.8, -0.0, 0.0, -0.0], [-4.4, 8.0, -0.8, 0.0, -0.0, -0.0], [-0.8, -0.8, 4.9, 0.0, -0.0, 0.0], [-0.0, 0.0, 0.0, 26.5, -0.0, -0.0], [0.0, -0.0, -0.0, -0.0, 26.5, -0.0], [-0.0, -0.0, 0.0, -0.0, -0.0, 24.8]], 'warnings': [], 'nsites': 16}",0,47,113,0.62,0.32,124.08
42,mp-2126,HfIr3,"{'Hf': 1.0, 'Ir': 3.0}",0.131220778,20.07022773,"{'G_Reuss': 137.0, 'G_VRH': 149.0, 'G_Voigt': 160.0, 'G_Voigt_Reuss_Hill': 149.0, 'K_Reuss': 276.0, 'K_VRH': 276.0, 'K_Voigt': 276.0, 'K_Voigt_Reuss_Hill': 276.0, 'elastic_anisotropy': 0.84, 'elastic_tensor': [[398.0, 215.0, 215.0, 0.0, 0.0, 0.0], [215.0, 398.0, 215.0, 0.0, 0.0, 0.0], [215.0, 215.0, 398.0, 0.0, 0.0, 0.0], [0.0, 0.0, 0.0, 206.0, 0.0, 0.0], [0.0, 0.0, 0.0, 0.0, 206.0, 0.0], [0.0, 0.0, 0.0, 0.0, 0.0, 206.0]], 'homogeneous_poisson': 0.27, 'poisson_ratio': 0.27, 'universal_anisotropy': 0.84, 'elastic_tensor_original': [[397.12042867210226, 212.7068455703935, 212.7068455703935, 0.0, 0.0, 0.0], [215.8501182764904, 397.8509537756637, 215.8501182764904, 0.0, 0.0, 0.0], [215.8499350587511, 215.8499350587511, 397.850837652363, 0.0, 0.0, 0.0], [-4.670673022769422e-05, -3.3210045199173725e-05, 3.904338646356903e-05, 206.44904107304077, 0.0, 0.0], [3.6080049096490836e-05, 5.651341023946434e-05, 5.7583411696033385e-05, 0.0, 206.4491129864719, 0.0], [3.233337733139204e-05, -6.08367494596777e-05, 4.210672396752027e-05, 0.0, 0.0, 206.44911993981472]], 'compliance_tensor': [[4.0, -1.4, -1.4, -0.0, -0.0, 0.0], [-1.4, 4.0, -1.4, 0.0, -0.0, 0.0], [-1.4, -1.4, 4.0, -0.0, 0.0, -0.0], [-0.0, 0.0, -0.0, 4.8, 0.0, 0.0], [-0.0, -0.0, 0.0, 0.0, 4.8, 0.0], [0.0, 0.0, -0.0, 0.0, 0.0, 4.8]], 'warnings': [], 'nsites': 4}",0,149,276,0.84,0.27,378.46
43,mp-21340,HfGePt,"{'Hf': 1.0, 'Ge': 1.0, 'Pt': 1.0}",0.129803266,14.41980722,"{'G_Reuss': 78.0, 'G_VRH': 79.0, 'G_Voigt': 80.0, 'G_Voigt_Reuss_Hill': 79.0, 'K_Reuss': 176.0, 'K_VRH': 177.0, 'K_Voigt': 178.0, 'K_Voigt_Reuss_Hill': 177.0, 'elastic_anisotropy': 0.12, 'elastic_tensor': [[255.0, 120.0, 132.0, 0.0, 0.0, 0.0], [120.0, 315.0, 134.0, 0.0, 0.0, 0.0], [132.0, 134.0, 255.0, 0.0, 0.0, 0.0], [0.0, 0.0, 0.0, 77.0, 0.0, 0.0], [0.0, 0.0, 0.0, 0.0, 92.0, 0.0], [0.0, 0.0, 0.0, 0.0, 0.0, 84.0]], 'homogeneous_poisson': 0.31, 'poisson_ratio': 0.31, 'universal_anisotropy': 0.12, 'elastic_tensor_original': [[255.09989484734348, 132.03321286767851, 134.00625393188486, 0.019075349817445825, 0.0036009199378127655, 0.007834243368575957], [132.11124257627253, 254.6831164672581, 120.71580487451337, -0.020413766786762988, -0.028759364879237092, -0.015525961786724033], [133.6462316431114, 120.02259782823978, 315.3799440375784, 0.0701943760016175, 0.019829591019836276, -0.04695628347631022], [0.054354370462445026, 0.11607840319768852, 0.06377137351614373, 83.99028979881953, 0.008661747903079806, -0.02343714156081954], [0.03827232129637089, -0.05631099423114467, 0.07959462302992777, 0.0010761699980067023, 76.50052446130597, -0.014152505175214195], [0.0453259707086332, -0.024418114496684493, 0.053214547986062656, 0.0036307897790690555, -0.00044850548901037785, 92.0909592882956]], 'compliance_tensor': [[5.7, -1.2, -2.3, 0.0, -0.0, 0.0], [-1.2, 4.3, -1.7, -0.0, 0.0, 0.0], [-2.3, -1.7, 6.0, -0.0, -0.0, -0.0], [0.0, -0.0, -0.0, 13.1, 0.0, -0.0], [-0.0, 0.0, -0.0, 0.0, 10.9, -0.0], [0.0, 0.0, -0.0, -0.0, -0.0, 11.9]], 'warnings': [], 'nsites': 12}",0,79,177,0.12,0.31,206.98
44,mp-2180,HfSb2,"{'Hf': 1.0, 'Sb': 2.0}",0.099895138,9.507866353,"{'G_Reuss': 48.0, 'G_VRH': 49.0, 'G_Voigt': 49.0, 'G_Voigt_Reuss_Hill': 49.0, 'K_Reuss': 84.0, 'K_VRH': 84.0, 'K_Voigt': 84.0, 'K_Voigt_Reuss_Hill': 84.0, 'elastic_anisotropy': 0.16, 'elastic_tensor': [[146.0, 54.0, 56.0, 0.0, 0.0, 0.0], [54.0, 145.0, 61.0, 0.0, 0.0, 0.0], [56.0, 61.0, 127.0, 0.0, 0.0, 0.0], [0.0, 0.0, 0.0, 57.0, 0.0, 0.0], [0.0, 0.0, 0.0, 0.0, 59.0, 0.0], [0.0, 0.0, 0.0, 0.0, 0.0, 48.0]], 'homogeneous_poisson': 0.26, 'poisson_ratio': 0.26, 'universal_anisotropy': 0.16, 'elastic_tensor_original': [[126.55206006558826, 55.50762505924237, 59.993691468764304, 0.0, 0.0, 0.0], [56.84054647644639, 145.80704962467655, 53.81192902379032, 0.0, 0.0, 0.0], [61.17156519258338, 53.79456662583198, 145.0839164857177, 0.0, 0.0, 0.0], [0.0008760403670157426, -0.002372164311764374, 0.0028955545377404553, 48.29527390323017, 0.0, 0.0], [-2.333337336067702e-08, -2.356670826456368e-06, 2.720004801295554e-06, 0.0, 56.686108576918514, 0.0], [0.0010460285109369497, 0.01868303294037495, 0.0036821564920730488, 0.0, 0.0, 59.43699044104223]], 'compliance_tensor': [[8.7, -2.0, -2.9, 0.0, 0.0, 0.0], [-2.0, 9.1, -3.5, 0.0, 0.0, -0.0], [-2.9, -3.5, 10.8, 0.0, 0.0, -0.0], [0.0, 0.0, 0.0, 17.6, 0.0, 0.0], [0.0, 0.0, 0.0, 0.0, 16.8, 0.0], [0.0, -0.0, -0.0, 0.0, 0.0, 20.7]], 'warnings': [], 'nsites': 24}",0,49,84,0.16,0.26,123.48
45,mp-22050,Hf2In5,"{'Hf': 2.0, 'In': 5.0}",0.135308641,9.280932966,"{'G_Reuss': 45.0, 'G_VRH': 45.0, 'G_Voigt': 46.0, 'G_Voigt_Reuss_Hill': 45.0, 'K_Reuss': 71.0, 'K_VRH': 72.0, 'K_Voigt': 72.0, 'K_Voigt_Reuss_Hill': 72.0, 'elastic_anisotropy': 0.15, 'elastic_tensor': [[168.0, 39.0, 39.0, 0.0, 0.0, 0.0], [39.0, 127.0, 37.0, 0.0, 0.0, 0.0], [39.0, 37.0, 127.0, 0.0, 0.0, 0.0], [0.0, 0.0, 0.0, 35.0, 0.0, 0.0], [0.0, 0.0, 0.0, 0.0, 46.0, 0.0], [0.0, 0.0, 0.0, 0.0, 0.0, 46.0]], 'homogeneous_poisson': 0.24, 'poisson_ratio': 0.24, 'universal_anisotropy': 0.15, 'elastic_tensor_original': [[126.73346205649601, 36.79963543970491, 40.080582433707725, 0.0, 0.0, 0.0], [36.962951825492084, 126.72920355084008, 40.055819147090546, 0.0, 0.0, 0.0], [38.70551265139523, 38.70551265139523, 167.70031487215752, 0.0, 0.0, 0.0], [-0.02435292398585206, 0.061163268459320526, -0.03648933762244603, 46.32892142997292, 0.0, 0.0], [0.05556393524363057, -0.05248006347256538, -0.038718048902391965, 0.0, 46.337243288085496, 0.0], [-5.276669129855791e-06, -9.18333762037333e-06, -1.0640004966887783e-05, 0.0, 0.0, 34.99017865864125]], 'compliance_tensor': [[6.7, -1.6, -1.6, -0.0, 0.0, -0.0], [-1.6, 9.0, -2.1, 0.0, -0.0, -0.0], [-1.6, -2.1, 9.0, 0.0, -0.0, 0.0], [-0.0, 0.0, 0.0, 28.6, -0.0, 0.0], [0.0, -0.0, -0.0, -0.0, 21.6, -0.0], [-0.0, -0.0, 0.0, 0.0, -0.0, 21.6]], 'warnings': [], 'nsites': 14}",0,45,72,0.15,0.24,111.6
46,mp-22434,HfFeP,"{'Hf': 1.0, 'Fe': 1.0, 'P': 1.0}",0.143172113,10.75533525,"{'G_Reuss': 123.0, 'G_VRH': 125.0, 'G_Voigt': 127.0, 'G_Voigt_Reuss_Hill': 125.0, 'K_Reuss': 213.0, 'K_VRH': 213.0, 'K_Voigt': 213.0, 'K_Voigt_Reuss_Hill': 213.0, 'elastic_anisotropy': 0.13, 'elastic_tensor': [[365.0, 126.0, 144.0, 0.0, 0.0, 0.0], [126.0, 342.0, 158.0, 0.0, 0.0, 0.0], [144.0, 158.0, 353.0, 0.0, 0.0, 0.0], [0.0, 0.0, 0.0, 143.0, 0.0, 0.0], [0.0, 0.0, 0.0, 0.0, 143.0, 0.0], [0.0, 0.0, 0.0, 0.0, 0.0, 136.0]], 'homogeneous_poisson': 0.25, 'poisson_ratio': 0.25, 'universal_anisotropy': 0.13, 'elastic_tensor_original': [[353.4173509790239, 144.27043110168006, 159.3330584472673, 0.0, 0.0, 0.0], [143.14744021702307, 364.90666710446453, 122.41352430916369, 0.0, 0.0, 0.0], [156.32576891210925, 130.2686347202597, 341.7433246782679, 0.0, 0.0, 0.0], [0.0065571434847521, 0.0067558135903348065, 0.0081822243483913, 136.11620529808397, 0.0, 0.0], [0.015709070417185146, 0.030867453685669503, 0.024102537764180993, 0.0, 142.7344208021033, 0.0], [-0.332534216888105, -0.32740418220514433, -0.33392049815358027, 0.0, 0.0, 143.02047211996597]], 'compliance_tensor': [[3.4, -0.8, -1.0, 0.0, 0.0, 0.0], [-0.8, 3.9, -1.4, 0.0, -0.0, 0.0], [-1.0, -1.4, 3.9, 0.0, 0.0, 0.0], [0.0, 0.0, 0.0, 7.0, 0.0, 0.0], [0.0, -0.0, 0.0, 0.0, 7.0, 0.0], [0.0, 0.0, 0.0, 0.0, 0.0, 7.3]], 'warnings': [], 'nsites': 12}",0,125,213,0.13,0.25,312.5
47,mp-2337,HfCo2,"{'Hf': 1.0, 'Co': 2.0}",0.156544295,12.0893888,"{'G_Reuss': 74.0, 'G_VRH': 74.0, 'G_Voigt': 74.0, 'G_Voigt_Reuss_Hill': 74.0, 'K_Reuss': 156.0, 'K_VRH': 156.0, 'K_Voigt': 156.0, 'K_Voigt_Reuss_Hill': 156.0, 'elastic_anisotropy': 0.03, 'elastic_tensor': [[247.0, 111.0, 111.0, 0.0, 0.0, 0.0], [111.0, 247.0, 111.0, 0.0, 0.0, 0.0], [111.0, 111.0, 247.0, 0.0, 0.0, 0.0], [0.0, 0.0, 0.0, 79.0, 0.0, 0.0], [0.0, 0.0, 0.0, 0.0, 79.0, 0.0], [0.0, 0.0, 0.0, 0.0, 0.0, 79.0]], 'homogeneous_poisson': 0.3, 'poisson_ratio': 0.3, 'universal_anisotropy': 0.03, 'elastic_tensor_original': [[246.79247666025213, 111.37392080603517, 111.37392080603517, 0.0, 0.0, 0.0], [111.28543010434998, 246.70585372217133, 111.28543010434998, 0.0, 0.0, 0.0], [111.33698256971078, 111.33698256971078, 246.75752390372628, 0.0, 0.0, 0.0], [2.9933325863638206e-06, 0.00044590322128664476, -2.0189994925730512e-05, 78.75242614103358, 0.0, 0.0], [0.0003382799150001193, 2.3659994059837576e-05, 0.00015682662725915783, 0.0, 78.75233246439045, 0.0], [-0.00045339321940350623, 0.00016615995824778224, 0.00022932994237720488, 0.0, 0.0, 78.75324180749527]], 'compliance_tensor': [[5.6, -1.8, -1.8, 0.0, 0.0, 0.0], [-1.8, 5.6, -1.8, -0.0, -0.0, -0.0], [-1.8, -1.8, 5.6, -0.0, -0.0, -0.0], [0.0, -0.0, -0.0, 12.7, -0.0, -0.0], [0.0, -0.0, -0.0, -0.0, 12.7, 0.0], [0.0, -0.0, -0.0, -0.0, 0.0, 12.7]], 'warnings': [], 'nsites': 6}",0,74,156,0.03,0.3,192.4
48,mp-2363,HfMo2,"{'Hf': 1.0, 'Mo': 2.0}",0.11864999,11.27480798,"{'G_Reuss': 67.0, 'G_VRH': 68.0, 'G_Voigt': 69.0, 'G_Voigt_Reuss_Hill': 68.0, 'K_Reuss': 200.0, 'K_VRH': 200.0, 'K_Voigt': 200.0, 'K_Voigt_Reuss_Hill': 200.0, 'elastic_anisotropy': 0.08, 'elastic_tensor': [[278.0, 161.0, 161.0, 0.0, 0.0, 0.0], [161.0, 278.0, 161.0, 0.0, 0.0, 0.0], [161.0, 161.0, 278.0, 0.0, 0.0, 0.0], [0.0, 0.0, 0.0, 75.0, 0.0, 0.0], [0.0, 0.0, 0.0, 0.0, 75.0, 0.0], [0.0, 0.0, 0.0, 0.0, 0.0, 75.0]], 'homogeneous_poisson': 0.35, 'poisson_ratio': 0.35, 'universal_anisotropy': 0.08, 'elastic_tensor_original': [[277.6036199038533, 161.0888350690598, 161.0888350690598, 0.0, 0.0, 0.0], [161.08919366011494, 277.6025529430915, 161.08919366011494, 0.0, 0.0, 0.0], [161.09290071517412, 161.09290071517412, 277.6025278703464, 0.0, 0.0, 0.0], [0.1580702300127718, 0.13020257767929144, 0.12616182777431717, 75.37358791532615, 0.0, 0.0], [0.13050326458693204, 0.1571476859401002, 0.12560614399565195, 0.0, 75.37292106479173, 0.0], [0.1303569678030214, 0.1258937008927702, 0.1577134497268437, 0.0, 0.0, 75.37339644850604]], 'compliance_tensor': [[6.3, -2.3, -2.3, -0.0, -0.0, 0.0], [-2.3, 6.3, -2.3, 0.0, -0.0, -0.0], [-2.3, -2.3, 6.3, -0.0, 0.0, -0.0], [-0.0, 0.0, -0.0, 13.3, -0.0, -0.0], [-0.0, -0.0, 0.0, -0.0, 13.3, -0.0], [0.0, -0.0, -0.0, -0.0, -0.0, 13.3]], 'warnings': [], 'nsites': 6}",0,68,200,0.08,0.35,183.6
49,mp-27731,HfH2,"{'Hf': 1.0, 'H': 2.0}",0.098401911,11.46564762,"{'G_Reuss': 26.0, 'G_VRH': 34.0, 'G_Voigt': 41.0, 'G_Voigt_Reuss_Hill': 34.0, 'K_Reuss': 148.0, 'K_VRH': 149.0, 'K_Voigt': 150.0, 'K_Voigt_Reuss_Hill': 149.0, 'elastic_anisotropy': 2.78, 'elastic_tensor': [[246.0, 101.0, 120.0, 0.0, 0.0, 0.0], [101.0, 246.0, 120.0, 0.0, 0.0, 0.0], [120.0, 120.0, 178.0, 0.0, 0.0, 0.0], [0.0, 0.0, 0.0, 43.0, 0.0, 0.0], [0.0, 0.0, 0.0, 0.0, 43.0, 0.0], [0.0, 0.0, 0.0, 0.0, 0.0, 10.0]], 'homogeneous_poisson': 0.4, 'poisson_ratio': 0.4, 'universal_anisotropy': 2.78, 'elastic_tensor_original': [[246.35532062882214, 101.20775613278163, 117.79784378085355, 0.0, 0.0, 0.0], [101.20661341655834, 246.3548044586555, 117.79668161464107, 0.0, 0.0, 0.0], [122.73551120534098, 122.73551120534098, 177.93824249655052, 0.0, 0.0, 0.0], [-0.00011987641434995982, -7.250012829785895e-05, 3.763904439444138e-07, 42.6900678363574, 0.0, 0.0], [-0.00010449946048865787, 8.034054774368408e-05, 8.358710886363302e-05, 0.0, 42.690586176914685, 0.0], [0.0001894301614474894, 6.816654290214331e-05, 7.919332800508068e-05, 0.0, 0.0, 9.849750263014618]], 'compliance_tensor': [[6.1, -0.7, -3.7, 0.0, -0.0, 0.0], [-0.7, 6.1, -3.7, -0.0, -0.0, 0.0], [-3.7, -3.7, 10.6, 0.0, 0.0, -0.0], [0.0, -0.0, 0.0, 23.4, 0.0, -0.0], [-0.0, -0.0, 0.0, 0.0, 23.4, -0.0], [0.0, 0.0, -0.0, -0.0, -0.0, 101.5]], 'warnings': [], 'nsites': 3}",0,34,149,2.78,0.4,95.2
50,mp-2802,HfRu,"{'Hf': 1.0, 'Ru': 1.0}",0.110767742,13.59548912,"{'G_Reuss': 94.0, 'G_VRH': 97.0, 'G_Voigt': 100.0, 'G_Voigt_Reuss_Hill': 97.0, 'K_Reuss': 197.0, 'K_VRH': 197.0, 'K_Voigt': 197.0, 'K_Voigt_Reuss_Hill': 197.0, 'elastic_anisotropy': 0.31, 'elastic_tensor': [[372.0, 110.0, 110.0, 0.0, 0.0, 0.0], [110.0, 372.0, 110.0, 0.0, 0.0, 0.0], [110.0, 110.0, 372.0, 0.0, 0.0, 0.0], [0.0, 0.0, 0.0, 79.0, 0.0, 0.0], [0.0, 0.0, 0.0, 0.0, 79.0, 0.0], [0.0, 0.0, 0.0, 0.0, 0.0, 79.0]], 'homogeneous_poisson': 0.29, 'poisson_ratio': 0.29, 'universal_anisotropy': 0.31, 'elastic_tensor_original': [[371.9263060544328, 110.17824405014763, 110.17824405014763, 0.0, 0.0, 0.0], [110.17917286394952, 371.9263294856767, 110.17917286394952, 0.0, 0.0, 0.0], [110.17987623445914, 110.17987623445914, 371.92724648339345, 0.0, 0.0, 0.0], [-3.1893344723755015e-05, -6.065335499622057e-05, -6.670669049178394e-05, 79.02168729042572, 0.0, 0.0], [-0.0002687634293254325, -0.0002672967621346829, -0.0002637167608566489, 0.0, 79.02165961374915, 0.0], [8.969669870396092e-05, 3.89866805919409e-05, 3.579001278495455e-05, 0.0, 0.0, 79.02175365378275]], 'compliance_tensor': [[3.1, -0.7, -0.7, -0.0, 0.0, -0.0], [-0.7, 3.1, -0.7, -0.0, -0.0, 0.0], [-0.7, -0.7, 3.1, 0.0, -0.0, -0.0], [-0.0, -0.0, 0.0, 12.7, -0.0, -0.0], [0.0, -0.0, -0.0, -0.0, 12.7, -0.0], [-0.0, 0.0, -0.0, -0.0, -0.0, 12.7]], 'warnings': [], 'nsites': 2}",0,97,197,0.31,0.29,250.26
51,mp-2828,HfN,"{'Hf': 1.0, 'N': 1.0}",0.154963491,13.68399703,"{'G_Reuss': 149.0, 'G_VRH': 156.0, 'G_Voigt': 164.0, 'G_Voigt_Reuss_Hill': 156.0, 'K_Reuss': 266.0, 'K_VRH': 266.0, 'K_Voigt': 266.0, 'K_Voigt_Reuss_Hill': 266.0, 'elastic_anisotropy': 0.5, 'elastic_tensor': [[569.0, 114.0, 114.0, 0.0, 0.0, 0.0], [114.0, 569.0, 114.0, 0.0, 0.0, 0.0], [114.0, 114.0, 569.0, 0.0, 0.0, 0.0], [0.0, 0.0, 0.0, 121.0, 0.0, 0.0], [0.0, 0.0, 0.0, 0.0, 121.0, 0.0], [0.0, 0.0, 0.0, 0.0, 0.0, 121.0]], 'homogeneous_poisson': 0.25, 'poisson_ratio': 0.25, 'universal_anisotropy': 0.5, 'elastic_tensor_original': [[569.4121132109574, 114.29546132869284, 114.29546132869284, 0.0, 0.0, 0.0], [114.29594923993392, 569.4136105544671, 114.29594923993392, 0.0, 0.0, 0.0], [114.2963546385644, 114.2963546385644, 569.4130201332964, 0.0, 0.0, 0.0], [-9.902676677522801e-05, 4.2033375825834174e-05, 2.7936694908267717e-05, 120.86743918686537, 0.0, 0.0], [-0.016631266812817777, 0.007815437900753617, -0.037512897922400125, 0.0, 120.86220167490403, 0.0], [-0.00030901364571882153, -0.00014010680830286543, -0.00016600683448558768, 0.0, 0.0, 120.85683864281576]], 'compliance_tensor': [[1.9, -0.3, -0.3, -0.0, -0.0, 0.0], [-0.3, 1.9, -0.3, 0.0, -0.0, -0.0], [-0.3, -0.3, 1.9, -0.0, 0.0, -0.0], [-0.0, 0.0, -0.0, 8.3, -0.0, -0.0], [-0.0, -0.0, 0.0, -0.0, 8.3, -0.0], [0.0, -0.0, -0.0, -0.0, -0.0, 8.3]], 'warnings': [], 'nsites': 2}",0,156,266,0.5,0.25,390
52,mp-28919,Hf3Te2,"{'Hf': 3.0, 'Te': 2.0}",0.195956872,9.956184756,"{'G_Reuss': 9.0, 'G_VRH': 20.0, 'G_Voigt': 30.0, 'G_Voigt_Reuss_Hill': 20.0, 'K_Reuss': 7.0, 'K_VRH': 27.0, 'K_Voigt': 48.0, 'K_Voigt_Reuss_Hill': 27.0, 'elastic_anisotropy': 17.03, 'elastic_tensor': [[125.0, 79.0, 3.0, 0.0, 0.0, 0.0], [79.0, 125.0, 3.0, 0.0, 0.0, 0.0], [3.0, 3.0, 8.0, 0.0, 0.0, 0.0], [0.0, 0.0, 0.0, 7.0, 0.0, 0.0], [0.0, 0.0, 0.0, 0.0, 7.0, 0.0], [0.0, 0.0, 0.0, 0.0, 0.0, 81.0]], 'homogeneous_poisson': 0.21, 'poisson_ratio': 0.21, 'universal_anisotropy': 17.03, 'elastic_tensor_original': [[125.04769927342929, 79.27707190700238, 3.97988207519746, 0.0, 0.0, 0.0], [79.2772900227586, 125.04793118295936, 3.9803249224643595, 0.0, 0.0, 0.0], [1.7554119001661703, 1.7554119001661703, 7.5530878170872375, 0.0, 0.0, 0.0], [4.333359270495962e-08, -4.993331853215657e-06, -6.83342067265034e-07, 6.568420018503149, 0.0, 0.0], [-2.4699943318301367e-06, -1.8946643499787383e-05, -9.8189884908866e-05, 0.0, 6.568417511809443, 0.0], [-8.163329873812093e-06, -8.863330910202122e-06, -3.0909968201448565e-05, 0.0, 0.0, 80.56621216935216]], 'compliance_tensor': [[13.4, -8.5, -1.9, -0.0, -0.0, 0.0], [-8.5, 13.4, -1.9, -0.0, 0.0, -0.0], [-1.9, -1.9, 133.8, -0.0, 0.0, -0.0], [-0.0, -0.0, -0.0, 152.2, -0.0, 0.0], [-0.0, 0.0, 0.0, -0.0, 152.2, -0.0], [0.0, -0.0, -0.0, 0.0, -0.0, 12.4]], 'warnings': [], 'nsites': 5}",0,20,27,17.03,0.21,48.4