,mp_id,Formula,Composition,IPF,Density,Elastic_Tensor,E_above_Hull
372,mp-540809,Zr2Fe12P7,"{'Zr': 2.0, 'Fe': 12.0, 'P': 7.0}",0.16975722021180134,7.290370076772893,"{'G_Reuss': 126.0, 'G_VRH': 127.0, 'G_Voigt': 128.0, 'G_Voigt_Reuss_Hill': 127.0, 'K_Reuss': 216.0, 'K_VRH': 216.0, 'K_Voigt': 216.0, 'K_Voigt_Reuss_Hill': 216.0, 'elastic_anisotropy': 0.09, 'elastic_tensor': [[372.0, 142.0, 140.0, 0.0, 0.0, 0.0], [142.0, 372.0, 140.0, 0.0, 0.0, 0.0], [140.0, 140.0, 357.0, 0.0, 0.0, 0.0], [0.0, 0.0, 0.0, 149.0, 0.0, 0.0], [0.0, 0.0, 0.0, 0.0, 149.0, 0.0], [0.0, 0.0, 0.0, 0.0, 0.0, 115.0]], 'homogeneous_poisson': 0.25, 'poisson_ratio': 0.25, 'universal_anisotropy': 0.09, 'elastic_tensor_original': [[375.2112682003967, 135.214793023028, 137.08431518577996, 0.0, 0.0, -0.150397166727434], [138.86704638310164, 379.0838172379231, 140.53507148954168, 0.0, 0.0, -0.1994322151902338], [141.13657908715115, 141.13653899251523, 356.7293125132571, 0.0, 0.0, 1.3030600615098244e-05], [-0.00048186691969759137, -0.00044681023462436753, -0.0004327902272579972, 148.82079671994566, 0.024148102680300473, 3.542335193431812e-05], [0.09205853555787814, 0.10685712865734305, 0.07876169079266541, 0.0004961572176144359, 148.77906525537702, -0.005650552941209138], [2.9463921842337695, 1.5640706786461, 0.34464259816048187, 0.0, 0.0, 109.99029358599236]], 'compliance_tensor': [[3.4, -0.9, -1.0, -0.0, -0.0, -0.0], [-0.9, 3.4, -1.0, -0.0, 0.0, -0.0], [-1.0, -1.0, 3.6, 0.0, 0.0, 0.0], [-0.0, -0.0, 0.0, 6.7, -0.0, -0.0], [0.0, -0.0, 0.0, -0.0, 6.7, -0.0], [-0.0, -0.0, 0.0, -0.0, 0.0, 8.7]], 'warnings': [], 'nsites': 21}",0.0
373,mp-540997,FeTeCl7,"{'Fe': 1.0, 'Te': 1.0, 'Cl': 7.0}",0.0870824867547235,2.4407181490899545,,0.0
374,mp-559713,Fe3(P2O7)2,"{'Fe': 3.0, 'P': 4.0, 'O': 14.0}",0.43998421048340897,2.9447019605167295,,0.0
375,mp-567566,Ho7FeI12,"{'Ho': 7.0, 'Fe': 1.0, 'I': 12.0}",0.18105316900772558,5.892681519583898,,0.0
376,mp-567844,Gd2Fe2I,"{'Gd': 2.0, 'Fe': 2.0, 'I': 1.0}",0.20401711220533988,7.7281901280618985,,0.0
377,mp-570414,Tm2Fe14C,"{'Tm': 2.0, 'Fe': 14.0, 'C': 1.0}",0.2153350937567583,8.529168415839306,,0.0
378,mp-570462,Pr12Fe2I17,"{'Pr': 12.0, 'Fe': 2.0, 'I': 17.0}",0.16737394397610736,5.189694647505981,,0.0
379,mp-607816,UFeGe,"{'U': 1.0, 'Fe': 1.0, 'Ge': 1.0}",0.15730849082387344,11.148952177573664,,0.0
380,mp-6956,La(FeP)2,"{'La': 1.0, 'Fe': 2.0, 'P': 2.0}",0.16736665112177368,6.517463424819095,,0.0
381,mp-759749,KFeO2,"{'K': 1.0, 'Fe': 1.0, 'O': 2.0}",0.49514820938626264,3.064062430752763,,0.0
382,mp-760343,FePO4,"{'Fe': 1.0, 'P': 1.0, 'O': 4.0}",0.34974476518513764,2.379566553593296,,0.0
383,mp-768716,Rb17Fe5O16,"{'Rb': 17.0, 'Fe': 5.0, 'O': 16.0}",0.5692266053917352,3.974956315807514,,0.0
384,mp-865179,Hf2FeOs,"{'Hf': 2.0, 'Fe': 1.0, 'Os': 1.0}",0.13636325971507504,15.144160510755144,"{'G_Reuss': 93.0, 'G_VRH': 94.0, 'G_Voigt': 96.0, 'G_Voigt_Reuss_Hill': 94.0, 'K_Reuss': 196.0, 'K_VRH': 196.0, 'K_Voigt': 196.0, 'K_Voigt_Reuss_Hill': 196.0, 'elastic_anisotropy': 0.15, 'elastic_tensor': [[351.0, 118.0, 118.0, 0.0, 0.0, 0.0], [118.0, 351.0, 118.0, 0.0, 0.0, 0.0], [118.0, 118.0, 351.0, 0.0, 0.0, 0.0], [0.0, 0.0, 0.0, 82.0, 0.0, 0.0], [0.0, 0.0, 0.0, 0.0, 82.0, 0.0], [0.0, 0.0, 0.0, 0.0, 0.0, 82.0]], 'homogeneous_poisson': 0.29, 'poisson_ratio': 0.29, 'universal_anisotropy': 0.15, 'elastic_tensor_original': [[354.3331926142815, 117.42272853537789, 117.42078379487793, -0.00011500506729874919, 9.619845064494397e-05, 2.3778941739246262e-05], [118.81163974172827, 349.1155414012031, 118.81163974172827, 0.0, 0.0, 0.0], [118.54241980721237, 118.54241980721237, 348.83509366984225, 0.0, 0.0, 0.0], [-0.0011348110586461009, -0.0010781177450685244, -0.001078027713758055, 82.15571093033442, 0.0, 0.0], [-0.001530285922869673, -0.0016243426250502483, -0.0015282625127126738, 0.0, 82.15557063035708, 0.0], [-0.0005202078463340911, -0.00048511112043845265, -0.00044201449311388215, 0.0, 0.0, 82.15550970032955]], 'compliance_tensor': [[3.4, -0.9, -0.9, -0.0, -0.0, 0.0], [-0.9, 3.4, -0.9, 0.0, -0.0, -0.0], [-0.9, -0.9, 3.4, -0.0, 0.0, -0.0], [-0.0, 0.0, -0.0, 12.2, -0.0, -0.0], [-0.0, -0.0, 0.0, -0.0, 12.2, -0.0], [0.0, -0.0, -0.0, -0.0, -0.0, 12.2]], 'warnings': [], 'nsites': 4}",0.0
385,mp-865490,V2CrFe,"{'V': 2.0, 'Cr': 1.0, 'Fe': 1.0}",0.21125710640798703,7.348434423639102,"{'G_Reuss': 100.0, 'G_VRH': 107.0, 'G_Voigt': 114.0, 'G_Voigt_Reuss_Hill': 107.0, 'K_Reuss': 232.0, 'K_VRH': 232.0, 'K_Voigt': 232.0, 'K_Voigt_Reuss_Hill': 232.0, 'elastic_anisotropy': 0.68, 'elastic_tensor': [[453.0, 121.0, 121.0, 0.0, 0.0, 0.0], [121.0, 453.0, 121.0, 0.0, 0.0, 0.0], [121.0, 121.0, 453.0, 0.0, 0.0, 0.0], [0.0, 0.0, 0.0, 79.0, 0.0, 0.0], [0.0, 0.0, 0.0, 0.0, 79.0, 0.0], [0.0, 0.0, 0.0, 0.0, 0.0, 79.0]], 'homogeneous_poisson': 0.3, 'poisson_ratio': 0.3, 'universal_anisotropy': 0.68, 'elastic_tensor_original': [[452.9643910994005, 121.54247322331065, 121.54247322331065, 0.0, 0.0, 0.0], [121.37482333627398, 453.1994250648695, 121.37482333627398, 0.0, 0.0, 0.0], [121.40286572116413, 121.40286572116413, 451.7344547447693, 0.0, 0.0, 0.0], [0.0003416804238900236, 0.00035165710293263666, 0.000345337095091701, 79.25308954794394, 0.0, 0.0], [0.00015619019376986442, 0.0001779635541172266, 0.00017886022189387763, 0.0, 79.26061912061847, 0.0], [-0.10388317221065745, -0.17587427818939522, -0.13830220824420153, 0.0, 0.0, 79.25679924921288]], 'compliance_tensor': [[2.5, -0.5, -0.5, -0.0, 0.0, -0.0], [-0.5, 2.5, -0.5, -0.0, -0.0, 0.0], [-0.5, -0.5, 2.5, 0.0, -0.0, -0.0], [-0.0, -0.0, 0.0, 12.6, -0.0, -0.0], [0.0, -0.0, -0.0, -0.0, 12.6, -0.0], [-0.0, 0.0, -0.0, -0.0, -0.0, 12.6]], 'warnings': [], 'nsites': 4}",0.0
386,mp-961673,TiFeTe,"{'Ti': 1.0, 'Fe': 1.0, 'Te': 1.0}",0.2797864537394527,7.544316549414458,"{'G_Reuss': 80.0, 'G_VRH': 80.0, 'G_Voigt': 81.0, 'G_Voigt_Reuss_Hill': 80.0, 'K_Reuss': 153.0, 'K_VRH': 153.0, 'K_Voigt': 153.0, 'K_Voigt_Reuss_Hill': 153.0, 'elastic_anisotropy': 0.04, 'elastic_tensor': [[273.0, 93.0, 93.0, 0.0, 0.0, 0.0], [93.0, 273.0, 93.0, 0.0, 0.0, 0.0], [93.0, 93.0, 273.0, 0.0, 0.0, 0.0], [0.0, 0.0, 0.0, 75.0, 0.0, 0.0], [0.0, 0.0, 0.0, 0.0, 75.0, 0.0], [0.0, 0.0, 0.0, 0.0, 0.0, 75.0]], 'homogeneous_poisson': 0.28, 'poisson_ratio': 0.28, 'universal_anisotropy': 0.04, 'elastic_tensor_original': [[273.2419198102873, 93.36451279899059, 93.3646081981856, 1.579986668220561e-05, -0.00031039738089598865, 0.00010819908702624346], [93.3647032247851, 273.2419198095196, 93.36470341086562, 4.759812101578091e-05, -0.00015861956507777627, 7.873312871055897e-05], [93.36460819815868, 93.36451279894322, 273.24191981020874, 1.642231562480956e-05, -0.00031039738070055633, 4.7675353581881635e-05], [0.0, 0.0, 2.5357400443427693e-05, 74.59538242847755, 1.272905552011004e-05, -6.339347279038535e-05], [-0.00012678693970544853, 0.0, -0.00012678691758066346, 2.5307023903588676e-05, 74.59538242847127, 0.0], [2.5357392528928423e-05, 5.07147762207869e-05, 0.0, -6.339346850189129e-05, 1.2628324985178703e-05, 74.59538242847334]], 'compliance_tensor': [[4.4, -1.1, -1.1, 0.0, 0.0, -0.0], [-1.1, 4.4, -1.1, -0.0, -0.0, -0.0], [-1.1, -1.1, 4.4, -0.0, 0.0, 0.0], [0.0, -0.0, -0.0, 13.4, -0.0, 0.0], [0.0, -0.0, 0.0, -0.0, 13.4, -0.0], [-0.0, -0.0, 0.0, 0.0, -0.0, 13.4]], 'warnings': [], 'nsites': 3}",0.0
387,mp-9913,Fe5B2P,"{'Fe': 5.0, 'B': 2.0, 'P': 1.0}",0.18600450510325178,7.192025369394376,,0.0
388,mp-1018895,PrFeSi,"{'Pr': 1.0, 'Fe': 1.0, 'Si': 1.0}",0.14052708255416846,6.364388156200222,"{'G_Reuss': 36.0, 'G_VRH': 42.0, 'G_Voigt': 49.0, 'G_Voigt_Reuss_Hill': 42.0, 'K_Reuss': 51.0, 'K_VRH': 61.0, 'K_Voigt': 70.0, 'K_Voigt_Reuss_Hill': 61.0, 'elastic_anisotropy': 2.04, 'elastic_tensor': [[175.0, 44.0, 34.0, 0.0, 0.0, 0.0], [44.0, 175.0, 34.0, 0.0, 0.0, 0.0], [34.0, 34.0, 56.0, 0.0, 0.0, 0.0], [0.0, 0.0, 0.0, 29.0, 0.0, 0.0], [0.0, 0.0, 0.0, 0.0, 29.0, 0.0], [0.0, 0.0, 0.0, 0.0, 0.0, 86.0]], 'homogeneous_poisson': 0.22, 'poisson_ratio': 0.22, 'universal_anisotropy': 2.04, 'elastic_tensor_original': [[175.28804600119443, 44.337241090584016, 40.23010627528581, 0.0, 0.0, 0.0], [44.337241090584016, 175.28804600119443, 40.2301062752858, 0.0, 0.0, 0.0], [27.9419047453456, 27.9419047453456, 56.141184648534, 0.0, 0.0, 0.0], [0.0, 0.0, 0.0, 29.254743646935683, 0.0, 0.0], [0.0, 0.0, 0.0, 0.0, 29.254743646935673, 0.0], [0.8603083589729398, -0.8603083589729398, 0.0, 0.0, 0.0, 86.02594143080921]], 'compliance_tensor': [[6.6, -1.0, -3.4, 0.0, 0.0, -0.0], [-1.0, 6.6, -3.4, 0.0, 0.0, 0.0], [-3.4, -3.4, 21.9, 0.0, 0.0, 0.0], [0.0, 0.0, 0.0, 34.2, 0.0, 0.0], [0.0, 0.0, 0.0, 0.0, 34.2, 0.0], [-0.0, 0.0, 0.0, 0.0, 0.0, 11.6]], 'warnings': ['Contains a rare earth element'], 'nsites': 6}",0.0
389,mp-1025450,CeFeSi2,"{'Ce': 1.0, 'Fe': 1.0, 'Si': 2.0}",0.13600598926692253,6.195413985239757,,0.0
390,mp-1087505,U(FeB3)2,"{'U': 1.0, 'Fe': 2.0, 'B': 6.0}",0.14198224996839703,8.884030639530467,,0.0
391,mp-1102980,NbFeP,"{'Nb': 1.0, 'Fe': 1.0, 'P': 1.0}",0.14510581031128184,7.730799269143372,,0.0
392,mp-1111491,K3FeF6,"{'K': 3.0, 'Fe': 1.0, 'F': 6.0}",0.31208940257533974,2.679539816348792,,0.0
393,mp-11202,Y6FeSb2,"{'Y': 6.0, 'Fe': 1.0, 'Sb': 2.0}",0.14630713364471787,5.6743866817132185,"{'G_Reuss': 34.0, 'G_VRH': 35.0, 'G_Voigt': 35.0, 'G_Voigt_Reuss_Hill': 35.0, 'K_Reuss': 59.0, 'K_VRH': 59.0, 'K_Voigt': 59.0, 'K_Voigt_Reuss_Hill': 59.0, 'elastic_anisotropy': 0.25, 'elastic_tensor': [[104.0, 41.0, 40.0, 0.0, 0.0, 0.0], [41.0, 104.0, 40.0, 0.0, 0.0, 0.0], [40.0, 40.0, 85.0, 0.0, 0.0, 0.0], [0.0, 0.0, 0.0, 44.0, 0.0, 0.0], [0.0, 0.0, 0.0, 0.0, 44.0, 0.0], [0.0, 0.0, 0.0, 0.0, 0.0, 31.0]], 'homogeneous_poisson': 0.25, 'poisson_ratio': 0.25, 'universal_anisotropy': 0.25, 'elastic_tensor_original': [[104.10500493952189, 40.95972362740751, 39.78948915470598, 0.0, 0.0, 3.716277923614668e-06], [40.798453688385756, 103.68029740226488, 39.64107662749229, 0.0, 0.0, 7.259599570204217e-06], [39.543310619601264, 39.54330389944592, 84.70161695164778, 0.0, 0.0, 2.759981645808826e-06], [0.0026031449151962143, 0.003774810117721927, 0.002911885082234508, 44.19001848726384, 3.0933335851003605e-06, 6.666664058013376e-09], [0.017201634312572402, 0.01501927420271657, 0.012996029994741632, 2.666666130772092e-08, 44.18131057583677, 0.0], [-0.124196968328841, -0.13964378456733312, -0.11618517604929979, 0.0, 0.0, 30.925647647278605]], 'compliance_tensor': [[12.7, -3.4, -4.3, 0.0, -0.0, -0.0], [-3.4, 12.7, -4.3, -0.0, -0.0, -0.0], [-4.3, -4.3, 15.9, -0.0, 0.0, 0.0], [0.0, 0.0, -0.0, 22.6, -0.0, 0.0], [0.0, -0.0, 0.0, -0.0, 22.6, 0.0], [-0.0, -0.0, 0.0, 0.0, 0.0, 32.0]], 'warnings': [], 'nsites': 9}",0.0
394,mp-1186389,PaAlFe2,"{'Pa': 1.0, 'Al': 1.0, 'Fe': 2.0}",0.18167222590780577,9.96660123967591,,0.0
395,mp-1187427,Ti2FeOs,"{'Ti': 2.0, 'Fe': 1.0, 'Os': 1.0}",0.16113248725240562,10.108796510111514,,0.0
396,mp-1190715,Er3FeB7,"{'Er': 3.0, 'Fe': 1.0, 'B': 7.0}",0.15012453933015474,8.60455172429062,,0.0
397,mp-1191434,ErFeB4,"{'Er': 1.0, 'Fe': 1.0, 'B': 4.0}",0.14973998187161033,7.953123337497776,,0.0
398,mp-1191671,Er2Fe17C3,"{'Er': 2.0, 'Fe': 17.0, 'C': 3.0}",0.20071355472494354,8.205559433309876,,0.44614499999973134
399,mp-1192960,Zr6Fe16Si7,"{'Zr': 6.0, 'Fe': 16.0, 'Si': 7.0}",0.16589970763201872,7.260913104362663,,0.0
400,mp-1193938,Ce(Al5Fe)2,"{'Ce': 1.0, 'Al': 10.0, 'Fe': 2.0}",0.11475118754509527,4.256794731844104,,0.0
401,mp-1199047,Fe2P12W,"{'Fe': 2.0, 'P': 12.0, 'W': 1.0}",0.07097892362306485,5.092969946207587,,0.0
402,mp-1200585,Ho2Fe3Si5,"{'Ho': 2.0, 'Fe': 3.0, 'Si': 5.0}",0.13980650152423266,7.210992796506546,,0.0
403,mp-1203959,Sc4FeCl5,"{'Sc': 4.0, 'Fe': 1.0, 'Cl': 5.0}",0.10812648329308502,3.070282425915488,,0.0
404,mp-1204900,Sc4FeBr5,"{'Sc': 4.0, 'Fe': 1.0, 'Br': 5.0}",0.11303048848270504,4.167958646807423,,0.0
405,mp-1205522,Y2FeSi2,"{'Y': 2.0, 'Fe': 1.0, 'Si': 2.0}",0.13888378644985377,5.011288896727093,,0.5322627499992905
406,mp-1206409,K(FeP)2,"{'K': 1.0, 'Fe': 2.0, 'P': 2.0}",0.2333485810053493,3.8710456375865556,,0.0
407,mp-1208346,TbFeB4,"{'Tb': 1.0, 'Fe': 1.0, 'B': 4.0}",0.13486283691572842,7.493737779608821,,0.0
408,mp-1210192,NaFeBr4,"{'Na': 1.0, 'Fe': 1.0, 'Br': 4.0}",0.09698606684462527,3.1076288009438517,,0.0
409,mp-1211033,Lu12In2Fe3,"{'Lu': 12.0, 'In': 2.0, 'Fe': 3.0}",0.1545026953452466,9.83062833528367,,0.0
410,mp-1211603,La6Al5Fe9,"{'La': 6.0, 'Al': 5.0, 'Fe': 9.0}",0.17408389346533004,6.052150473464466,,0.0
411,mp-1212162,Ho(Al5Fe)2,"{'Ho': 1.0, 'Al': 10.0, 'Fe': 2.0}",0.11246022119246935,4.475938199945478,,0.0
412,mp-1212845,Er(Al5Fe)2,"{'Er': 1.0, 'Al': 10.0, 'Fe': 2.0}",0.11278234411724332,4.537387123297616,,0.0
413,mp-1212962,Er2Fe17C3,"{'Er': 2.0, 'Fe': 17.0, 'C': 3.0}",0.20023039118650696,8.185806770685357,,0.0
414,mp-1213351,CsFeBr4,"{'Cs': 1.0, 'Fe': 1.0, 'Br': 4.0}",0.15574158605830474,3.3754344614561576,,0.0
415,mp-1216513,V9Ga4Fe3,"{'V': 9.0, 'Ga': 4.0, 'Fe': 3.0}",0.15915808555366193,7.278105540514831,,0.0
416,mp-1216685,TmAl7Fe5,"{'Tm': 1.0, 'Al': 7.0, 'Fe': 5.0}",0.1473695025746025,5.670072031173108,,0.0
417,mp-1219887,Pr(AlFe)6,"{'Pr': 1.0, 'Al': 6.0, 'Fe': 6.0}",0.1492781648471613,5.5891777411930645,,0.0
418,mp-1220971,Nd(GaFe)6,"{'Nd': 1.0, 'Ga': 6.0, 'Fe': 6.0}",0.18667103943240212,7.87869983193679,,0.0
419,mp-1223925,HoFeRu,"{'Ho': 1.0, 'Fe': 1.0, 'Ru': 1.0}",0.17444391507778215,10.9290930105384,,0.0
420,mp-1224770,Fe3NiAs4,"{'Fe': 3.0, 'Ni': 1.0, 'As': 4.0}",0.1322621405711097,8.07722657161506,,0.0
421,mp-1229054,Al53Fe17Si12,"{'Al': 53.0, 'Fe': 17.0, 'Si': 12.0}",0.10262939773359323,3.8477982537916624,,0.0
422,mp-12789,Yb(Al5Fe)2,"{'Yb': 1.0, 'Al': 10.0, 'Fe': 2.0}",0.11454498421395136,4.505989178330112,,0.0
423,mp-1568804,Y2Fe2O7,"{'Y': 2.0, 'Fe': 2.0, 'O': 7.0}",0.5614743219374119,5.109126818654103,,0.0
424,mp-17443,Cs2FeO4,"{'Cs': 2.0, 'Fe': 1.0, 'O': 4.0}",0.5522644403871426,4.122525198255067,,0.0
425,mp-19421,FeWO4,"{'Fe': 1.0, 'W': 1.0, 'O': 4.0}",0.5342803459794407,7.090244770279603,"{'G_Reuss': 51.0, 'G_VRH': 54.0, 'G_Voigt': 57.0, 'G_Voigt_Reuss_Hill': 54.0, 'K_Reuss': 141.0, 'K_VRH': 141.0, 'K_Voigt': 142.0, 'K_Voigt_Reuss_Hill': 141.0, 'elastic_anisotropy': 0.62, 'elastic_tensor': [[261.0, 95.0, 100.0, 0.0, -19.0, 0.0], [95.0, 217.0, 104.0, 0.0, 6.0, 0.0], [100.0, 104.0, 200.0, 0.0, 1.0, 0.0], [0.0, 0.0, 0.0, 30.0, 0.0, -3.0], [-19.0, 6.0, 1.0, 0.0, 70.0, 0.0], [0.0, 0.0, 0.0, -3.0, 0.0, 61.0]], 'homogeneous_poisson': 0.33, 'poisson_ratio': 0.33, 'universal_anisotropy': 0.62, 'elastic_tensor_original': [[216.82275381077872, 102.47177249575014, 95.23977632254764, 5.766297109510349, 0.0, 0.0], [105.08680276561539, 200.44872361760466, 100.35269513874141, 0.057352485082954645, 0.0, 0.0], [94.99643452448618, 100.37397170560132, 260.60885002504546, -18.830151257651988, 0.0, 0.0], [5.797160745908353, 1.7883301079326301, -18.400649750639925, 69.94701199709642, 0.0, 0.0], [0.09326596873889237, -0.09217633582700192, -0.15121619025148333, 0.050169387479406455, 60.81254552408748, -6.043806342081385], [-0.01765289845047767, -0.027700491769193144, 0.0060784642947971455, 0.02111412827736942, 0.44852265107244815, 30.364065672921317]], 'compliance_tensor': [[5.2, -1.4, -1.9, 0.0, 1.5, 0.0], [-1.4, 6.5, -2.7, 0.0, -0.9, 0.0], [-1.9, -2.7, 7.3, 0.0, -0.4, 0.0], [0.0, 0.0, 0.0, 33.1, 0.0, 1.5], [1.5, -0.9, -0.4, 0.0, 14.8, 0.0], [0.0, 0.0, 0.0, 1.5, 0.0, 16.5]], 'warnings': [], 'nsites': 12}",0.0
426,mp-20785,Nd(FeGe)2,"{'Nd': 1.0, 'Fe': 2.0, 'Ge': 2.0}",0.20231024291676036,7.603052909925852,,0.0
427,mp-20890,Eu(FeAs)2,"{'Eu': 1.0, 'Fe': 2.0, 'As': 2.0}",0.17427706034366644,8.079887287614097,,0.0
428,mp-21336,TaFeP,"{'Ta': 1.0, 'Fe': 1.0, 'P': 1.0}",0.14664585366594407,11.640108246456196,"{'G_Reuss': 141.0, 'G_VRH': 143.0, 'G_Voigt': 144.0, 'G_Voigt_Reuss_Hill': 143.0, 'K_Reuss': 264.0, 'K_VRH': 264.0, 'K_Voigt': 264.0, 'K_Voigt_Reuss_Hill': 264.0, 'elastic_anisotropy': 0.1, 'elastic_tensor': [[443.0, 154.0, 193.0, 0.0, 0.0, 0.0], [154.0, 444.0, 191.0, 0.0, 0.0, 0.0], [193.0, 191.0, 412.0, 0.0, 0.0, 0.0], [0.0, 0.0, 0.0, 164.0, 0.0, 0.0], [0.0, 0.0, 0.0, 0.0, 154.0, 0.0], [0.0, 0.0, 0.0, 0.0, 0.0, 150.0]], 'homogeneous_poisson': 0.27, 'poisson_ratio': 0.27, 'universal_anisotropy': 0.1, 'elastic_tensor_original': [[412.0785572049439, 195.2173417927589, 192.73395984480854, 0.0, 0.0, 0.0], [191.5726330515263, 442.6726266984144, 154.30163646266737, 0.0, 0.0, 0.0], [189.1341223888759, 153.5774860367254, 444.18211696233965, 0.0, 0.0, 0.0], [0.0007201598941629661, 0.000640886639327381, 0.000737556585628536, 150.01504566556505, 0.0, 0.0], [-0.004034499246300465, -0.004035102581022133, -0.004092442712434369, 0.0, 163.70932941071308, 0.0], [-0.03128949327424387, -0.031627394029551274, -0.03067065855764257, 0.0, 0.0, 153.76907437427607]], 'compliance_tensor': [[2.9, -0.5, -1.1, 0.0, 0.0, 0.0], [-0.5, 2.9, -1.1, 0.0, -0.0, 0.0], [-1.1, -1.1, 3.5, 0.0, -0.0, 0.0], [0.0, 0.0, 0.0, 6.1, 0.0, 0.0], [0.0, -0.0, -0.0, 0.0, 6.5, 0.0], [0.0, 0.0, 0.0, 0.0, 0.0, 6.7]], 'warnings': [], 'nsites': 12}",0.0
429,mp-21426,Dy(FeGe)2,"{'Dy': 1.0, 'Fe': 2.0, 'Ge': 2.0}",0.18728883328791415,8.653693344129277,,0.0
430,mp-22152,NaFeAs,"{'Na': 1.0, 'Fe': 1.0, 'As': 1.0}",0.19410324245881008,4.793908386613678,"{'G_Reuss': 30.0, 'G_VRH': 32.0, 'G_Voigt': 35.0, 'G_Voigt_Reuss_Hill': 32.0, 'K_Reuss': 47.0, 'K_VRH': 50.0, 'K_Voigt': 54.0, 'K_Voigt_Reuss_Hill': 50.0, 'elastic_anisotropy': 0.9, 'elastic_tensor': [[117.0, 37.0, 30.0, 0.0, 0.0, 0.0], [37.0, 117.0, 30.0, 0.0, 0.0, 0.0], [30.0, 30.0, 56.0, 0.0, 0.0, 0.0], [0.0, 0.0, 0.0, 27.0, 0.0, 0.0], [0.0, 0.0, 0.0, 0.0, 27.0, 0.0], [0.0, 0.0, 0.0, 0.0, 0.0, 56.0]], 'homogeneous_poisson': 0.23, 'poisson_ratio': 0.23, 'universal_anisotropy': 0.9, 'elastic_tensor_original': [[116.58945704176942, 36.5570896511019, 30.971940798597817, 0.0, 0.0, 0.0], [36.55760871432735, 116.59053362216198, 30.972375657238352, 0.0, 0.0, 0.0], [29.598770931059924, 29.598770931059924, 55.51094117083967, 0.0, 0.0, 0.0], [-7.416684058661042e-05, -0.00019336662450311184, -0.0002782932068086577, 26.84895110069907, 0.0, 0.0], [0.00031293351189961855, 0.00015386389499688952, 8.001695244249411e-05, 0.0, 26.849390797783123, 0.0], [4.5346733491132445e-05, -3.9333030558569256e-05, -1.627989840275417e-05, 0.0, 0.0, 55.92602175534256]], 'compliance_tensor': [[10.4, -2.1, -4.5, 0.0, 0.0, -0.0], [-2.1, 10.4, -4.5, 0.0, 0.0, 0.0], [-4.5, -4.5, 23.0, 0.0, -0.0, 0.0], [0.0, 0.0, 0.0, 37.2, 0.0, 0.0], [0.0, 0.0, -0.0, 0.0, 37.2, -0.0], [-0.0, 0.0, 0.0, 0.0, -0.0, 17.9]], 'warnings': [], 'nsites': 6}",0.0
431,mp-22265,Fe(SbO2)2,"{'Fe': 1.0, 'Sb': 2.0, 'O': 4.0}",0.35080445415427963,5.174991851288952,,0.0
432,mp-22701,ScFeSi,"{'Sc': 1.0, 'Fe': 1.0, 'Si': 1.0}",0.13951689756665347,4.848691540330628,"{'G_Reuss': 58.0, 'G_VRH': 62.0, 'G_Voigt': 65.0, 'G_Voigt_Reuss_Hill': 62.0, 'K_Reuss': 139.0, 'K_VRH': 139.0, 'K_Voigt': 140.0, 'K_Voigt_Reuss_Hill': 139.0, 'elastic_anisotropy': 0.62, 'elastic_tensor': [[231.0, 94.0, 82.0, 0.0, 0.0, 0.0], [94.0, 179.0, 130.0, 0.0, 0.0, 0.0], [82.0, 130.0, 241.0, 0.0, 0.0, 0.0], [0.0, 0.0, 0.0, 72.0, 0.0, 0.0], [0.0, 0.0, 0.0, 0.0, 90.0, 0.0], [0.0, 0.0, 0.0, 0.0, 0.0, 50.0]], 'homogeneous_poisson': 0.31, 'poisson_ratio': 0.31, 'universal_anisotropy': 0.62, 'elastic_tensor_original': [[241.13521248617513, 80.2326848064822, 128.81234099223937, 0.0, 0.0, 0.0], [83.5669996056165, 230.78835118698294, 93.12664360720994, 0.0, 0.0, 0.0], [132.04209210523814, 94.23076970921127, 179.02355387441636, 0.0, 0.0, 0.0], [0.23130575764440617, 0.21767100011317184, 0.2133938267049968, 49.85372393487928, 0.0, 0.0], [0.00021856314969397115, 0.0004716938195269758, 0.00019214661121227326, 0.0, 71.91748014972782, 0.0], [0.0014688081222779278, 0.0008958649332799849, 0.00087686116412771, 0.0, 0.0, 89.64083595130906]], 'compliance_tensor': [[5.5, -2.5, -0.5, 0.0, -0.0, 0.0], [-2.5, 10.4, -4.8, 0.0, -0.0, 0.0], [-0.5, -4.8, 6.9, 0.0, 0.0, 0.0], [0.0, 0.0, 0.0, 13.9, 0.0, 0.0], [-0.0, -0.0, 0.0, 0.0, 11.2, 0.0], [0.0, 0.0, 0.0, 0.0, 0.0, 20.1]], 'warnings': [], 'nsites': 12}",0.0