,mp_id,Formula,Composition,IPF,Density,Elastic_Tensor,E_above_Hull
974,mp-6624,Tb2Fe2Si2C,"{'Tb': 2.0, 'Fe': 2.0, 'Si': 2.0, 'C': 1.0}",0.13344869829192668,7.583527316438486,"{'G_Reuss': 76.0, 'G_VRH': 81.0, 'G_Voigt': 85.0, 'G_Voigt_Reuss_Hill': 81.0, 'K_Reuss': 125.0, 'K_VRH': 126.0, 'K_Voigt': 128.0, 'K_Voigt_Reuss_Hill': 126.0, 'elastic_anisotropy': 0.61, 'elastic_tensor': [[208.0, 82.0, 74.0, 0.0, -47.0, 0.0], [82.0, 255.0, 78.0, 0.0, 11.0, 0.0], [74.0, 78.0, 217.0, 0.0, 9.0, 0.0], [0.0, 0.0, 0.0, 92.0, 0.0, 15.0], [-47.0, 11.0, 9.0, 0.0, 92.0, 0.0], [0.0, 0.0, 0.0, 15.0, 0.0, 93.0]], 'homogeneous_poisson': 0.24, 'poisson_ratio': 0.24, 'universal_anisotropy': 0.61, 'elastic_tensor_original': [[208.22327743076627, 90.04247675398538, 81.62510192019883, -5.599963564792366e-06, -45.98119543119588, 2.5399834740308226e-05], [73.51486219941073, 255.3757772950916, 77.5836029665636, 0.0, 11.188429473265511, 0.0], [66.90695809007501, 78.86662319541037, 216.7114027681667, 1.2000060709701434e-06, 9.081666345205255, 8.200041484962647e-06], [0.0, 0.0, 0.0, 91.94003719862671, 0.0, 14.683324225278515], [-48.35208788769093, 11.368000655351135, 8.620735671977148, 1.1300015561726007e-05, 92.50464159202694, -6.000008262863366e-06], [0.0, 0.0, 0.0, 14.785302945725352, 0.0, 93.09922075482145]], 'compliance_tensor': [[7.1, -1.9, -1.9, 0.0, 4.1, 0.0], [-1.9, 4.9, -1.1, -0.0, -1.5, 0.0], [-1.9, -1.1, 5.7, -0.0, -1.4, 0.0], [0.0, -0.0, -0.0, 11.2, 0.0, -1.8], [4.1, -1.5, -1.4, 0.0, 13.2, -0.0], [0.0, 0.0, 0.0, -1.8, -0.0, 11.0]], 'warnings': ['Contains a rare earth element'], 'nsites': 7}",0.0
975,mp-998980,TiAlFeCo,"{'Ti': 1.0, 'Al': 1.0, 'Fe': 1.0, 'Co': 1.0}",0.1707558408601182,6.423142027062664,"{'G_Reuss': 127.0, 'G_VRH': 127.0, 'G_Voigt': 127.0, 'G_Voigt_Reuss_Hill': 127.0, 'K_Reuss': 175.0, 'K_VRH': 175.0, 'K_Voigt': 175.0, 'K_Voigt_Reuss_Hill': 175.0, 'elastic_anisotropy': 0.01, 'elastic_tensor': [[355.0, 85.0, 85.0, 0.0, 0.0, 0.0], [85.0, 355.0, 85.0, 0.0, 0.0, 0.0], [85.0, 85.0, 355.0, 0.0, 0.0, 0.0], [0.0, 0.0, 0.0, 122.0, 0.0, 0.0], [0.0, 0.0, 0.0, 0.0, 122.0, 0.0], [0.0, 0.0, 0.0, 0.0, 0.0, 122.0]], 'homogeneous_poisson': 0.21, 'poisson_ratio': 0.21, 'universal_anisotropy': 0.01, 'elastic_tensor_original': [[354.73151078367266, 85.14902128274706, 85.14902128274706, 0.0, 0.0, 0.0], [85.14902128274706, 354.73151078367266, 85.14902128274706, 0.0, 0.0, 0.0], [85.14902128274706, 85.14902128274706, 354.73151078367266, 0.0, 0.0, 0.0], [0.0, 0.0, 0.0, 122.2514391925068, 0.0, 0.0], [0.0, 0.0, 0.0, 0.0, 122.2514391925068, 0.0], [0.0, 0.0, 0.0, 0.0, 0.0, 122.2514391925068]], 'compliance_tensor': [[3.1, -0.6, -0.6, 0.0, -0.0, 0.0], [-0.6, 3.1, -0.6, -0.0, 0.0, -0.0], [-0.6, -0.6, 3.1, -0.0, -0.0, 0.0], [0.0, -0.0, -0.0, 8.2, 0.0, -0.0], [-0.0, 0.0, -0.0, 0.0, 8.2, -0.0], [0.0, -0.0, 0.0, -0.0, -0.0, 8.2]], 'warnings': [], 'nsites': 4}",0.0
976,mp-1025316,Ho2Fe2Si2C,"{'Ho': 2.0, 'Fe': 2.0, 'Si': 2.0, 'C': 1.0}",0.15054940510822462,7.927919170981369,"{'G_Reuss': 80.0, 'G_VRH': 84.0, 'G_Voigt': 87.0, 'G_Voigt_Reuss_Hill': 84.0, 'K_Reuss': 128.0, 'K_VRH': 129.0, 'K_Voigt': 130.0, 'K_Voigt_Reuss_Hill': 129.0, 'elastic_anisotropy': 0.51, 'elastic_tensor': [[217.0, 85.0, 68.0, 0.0, -41.0, 0.0], [85.0, 265.0, 82.0, 0.0, 15.0, 0.0], [68.0, 82.0, 220.0, 0.0, 14.0, 0.0], [0.0, 0.0, 0.0, 95.0, 0.0, 16.0], [-41.0, 15.0, 14.0, 0.0, 93.0, 0.0], [0.0, 0.0, 0.0, 16.0, 0.0, 94.0]], 'homogeneous_poisson': 0.23, 'poisson_ratio': 0.23, 'universal_anisotropy': 0.51, 'elastic_tensor_original': [[217.03698178744568, 83.17307883960916, 67.5613200197049, 5.599941682480147e-06, -46.09124700799922, -2.6599722991780696e-05], [86.8241784807858, 265.47365318392366, 84.63579424987704, -1.199981702345358e-06, 9.53595259314347, -1.0599838370717333e-05], [68.868097250339, 79.87447802860322, 219.8232872681649, -1.0000055766384734e-06, 8.762003062250894, -8.400046843763178e-06], [0.0, -4.004424410792306e-06, 0.0, 94.5798584606152, 0.0, 16.273364113775195], [-36.555270883398975, 20.959896084313634, 19.41562865755877, -1.149987434805944e-05, 93.36543505423657, 4.599949739223775e-06], [0.0, -2.304522404423393e-05, 0.0, 16.675149848653042, 0.0, 93.74080026246317]], 'compliance_tensor': [[6.4, -1.8, -1.5, -0.0, 3.4, 0.0], [-1.8, 4.8, -1.1, 0.0, -1.4, 0.0], [-1.5, -1.1, 5.5, 0.0, -1.3, -0.0], [-0.0, 0.0, 0.0, 10.9, 0.0, -1.9], [3.4, -1.4, -1.3, 0.0, 12.6, -0.0], [0.0, 0.0, -0.0, -1.9, -0.0, 11.0]], 'warnings': ['Contains a rare earth element'], 'nsites': 7}",0.0
977,mp-1025357,Lu2Fe2Si2C,"{'Lu': 2.0, 'Fe': 2.0, 'Si': 2.0, 'C': 1.0}",0.14549856856572418,8.519183743668963,"{'G_Reuss': 82.0, 'G_VRH': 85.0, 'G_Voigt': 88.0, 'G_Voigt_Reuss_Hill': 85.0, 'K_Reuss': 141.0, 'K_VRH': 141.0, 'K_Voigt': 142.0, 'K_Voigt_Reuss_Hill': 141.0, 'elastic_anisotropy': 0.37, 'elastic_tensor': [[252.0, 97.0, 78.0, 0.0, 35.0, 0.0], [97.0, 266.0, 87.0, 0.0, -14.0, 0.0], [78.0, 87.0, 232.0, 0.0, -16.0, 0.0], [0.0, 0.0, 0.0, 97.0, 0.0, -19.0], [35.0, -14.0, -16.0, 0.0, 91.0, 0.0], [0.0, 0.0, 0.0, -19.0, 0.0, 90.0]], 'homogeneous_poisson': 0.25, 'poisson_ratio': 0.25, 'universal_anisotropy': 0.37, 'elastic_tensor_original': [[251.4927206630843, 107.01408121305873, 88.43313690369061, 4.200014129541798e-06, 33.966905470284765, 3.100010428947517e-05], [87.40746000767422, 265.827355547531, 90.19870569675344, -3.999988376663149e-06, -16.206101707618362, 2.159993723398101e-05], [68.52181417615404, 83.76886923689199, 231.6818708707762, -1.9999643558158557e-06, -16.88547426015968, 8.399850294426596e-06], [0.0, -4.519451125694275e-06, 0.0, 97.22509535832343, 0.0, -18.408411537490423], [35.333516577619584, -11.24872313704889, -14.05352836022443, 1.1300055288203628e-05, 90.92856948961666, 4.300021038873946e-06], [0.0, 2.2282725165635756e-05, 0.0, -19.361035744920358, 0.0, 89.90786527769967]], 'compliance_tensor': [[5.4, -1.7, -1.4, -0.0, -2.5, -0.0], [-1.7, 4.8, -1.2, -0.0, 1.2, -0.0], [-1.4, -1.2, 5.3, -0.0, 1.3, 0.0], [-0.0, -0.0, -0.0, 10.7, -0.0, 2.3], [-2.5, 1.2, 1.3, -0.0, 12.4, -0.0], [-0.0, -0.0, 0.0, 2.3, -0.0, 11.6]], 'warnings': ['Contains a rare earth element'], 'nsites': 7}",0.0
978,mp-1078209,LiLa2FeO6,"{'Li': 1.0, 'La': 2.0, 'Fe': 1.0, 'O': 6.0}",0.5944581096065034,6.2090237326825815,,0.0
979,mp-1205624,GdFe2SiC,"{'Gd': 1.0, 'Fe': 2.0, 'Si': 1.0, 'C': 1.0}",0.16960364373287762,7.7940712600819415,,0.0
980,mp-1208045,TlFe(SO4)2,"{'Tl': 1.0, 'Fe': 1.0, 'S': 2.0, 'O': 8.0}",0.4399697631134328,3.8767349917862974,,0.0
981,mp-1210576,Nd3Sc2(FeO4)3,"{'Nd': 3.0, 'Sc': 2.0, 'Fe': 3.0, 'O': 12.0}",0.5246584759741721,5.478716310838352,,0.0
982,mp-1213032,ErMnFeO5,"{'Er': 1.0, 'Mn': 1.0, 'Fe': 1.0, 'O': 5.0}",0.5547693168588332,6.569075082729033,,0.060497812498283565
983,mp-1215547,Zn3Cr8FeS16,"{'Zn': 3.0, 'Cr': 8.0, 'Fe': 1.0, 'S': 16.0}",0.16837779558397414,3.900419595065439,,0.0
984,mp-1217120,Ti2FeNiSb2,"{'Ti': 2.0, 'Fe': 1.0, 'Ni': 1.0, 'Sb': 2.0}",0.13664345752686718,7.221651501682221,,0.0
985,mp-1218072,Ta4FeCoO12,"{'Ta': 4.0, 'Fe': 1.0, 'Co': 1.0, 'O': 12.0}",0.5331177126867981,7.982959460354359,,0.6589341666654036
986,mp-1218412,Sr4TaFeO8,"{'Sr': 4.0, 'Ta': 1.0, 'Fe': 1.0, 'O': 8.0}",0.5433710956513326,5.841885261304486,,0.0
987,mp-1218650,Sr3Fe2MoO9,"{'Sr': 3.0, 'Fe': 2.0, 'Mo': 1.0, 'O': 9.0}",0.5841406615071912,5.347840637177677,,0.0
988,mp-1218741,Sr2NbFeO6,"{'Sr': 2.0, 'Nb': 1.0, 'Fe': 1.0, 'O': 6.0}",0.5714836188672017,5.35349320547093,,0.0
989,mp-1220157,NdFeCoSi2,"{'Nd': 1.0, 'Fe': 1.0, 'Co': 1.0, 'Si': 2.0}",0.1864573322845291,6.717808517029979,,0.0
990,mp-1220467,Nd2FeCo17Si8,"{'Nd': 2.0, 'Fe': 1.0, 'Co': 17.0, 'Si': 8.0}",0.16678198733597085,7.55349651618761,,0.0
991,mp-1222513,Li3Fe2CoO6,"{'Li': 3.0, 'Fe': 2.0, 'Co': 1.0, 'O': 6.0}",0.6133728900585795,4.400807277376997,,0.3837910416661927
992,mp-1277926,La2MgFeO6,"{'La': 2.0, 'Mg': 1.0, 'Fe': 1.0, 'O': 6.0}",0.5594848150020714,6.110420821897791,,0.2827882500007206
993,mp-1287635,NaFe2P2HO8,"{'Na': 1.0, 'Fe': 2.0, 'P': 2.0, 'H': 1.0, 'O': 8.0}",0.41044126815550663,2.7687928793695757,,0.0
994,mp-18845,Ba2FeWO6,"{'Ba': 2.0, 'Fe': 1.0, 'W': 1.0, 'O': 6.0}",0.5785863143487453,7.110301620983,,0.0
995,mp-18868,RbFe(MoO4)2,"{'Rb': 1.0, 'Fe': 1.0, 'Mo': 2.0, 'O': 8.0}",0.4055113545378437,3.350446014229822,,0.0
996,mp-18878,LiFeAs2O7,"{'Li': 1.0, 'Fe': 1.0, 'As': 2.0, 'O': 7.0}",0.4984981386663735,4.028044539275526,"{'G_Reuss': 47.0, 'G_VRH': 48.0, 'G_Voigt': 49.0, 'G_Voigt_Reuss_Hill': 48.0, 'K_Reuss': 94.0, 'K_VRH': 96.0, 'K_Voigt': 98.0, 'K_Voigt_Reuss_Hill': 96.0, 'elastic_anisotropy': 0.34, 'elastic_tensor': [[139.0, 57.0, 81.0, 0.0, 9.0, 0.0], [57.0, 142.0, 74.0, 0.0, 10.0, 0.0], [81.0, 74.0, 180.0, 0.0, 7.0, 0.0], [0.0, 0.0, 0.0, 54.0, 0.0, 11.0], [9.0, 10.0, 7.0, 0.0, 63.0, 0.0], [0.0, 0.0, 0.0, 11.0, 0.0, 48.0]], 'homogeneous_poisson': 0.29, 'poisson_ratio': 0.29, 'universal_anisotropy': 0.34, 'elastic_tensor_original': [[138.81979493448728, 55.25167328634375, 79.04807547121328, 0.11208804072080761, 14.293771088285204, -0.06451530832254593], [57.92729667030707, 141.78954517492195, 72.7007736346326, 0.29259794787244836, 8.049544170178665, 0.291383546428635], [82.27854188795769, 74.97318935883479, 179.78483874890748, -0.0435122593977346, 5.330578279669677, 0.0017022179718334761], [1.1800057749156305e-05, 7.354119545948252e-05, 6.213158850499188e-05, 53.50574398892412, 3.384213804269115e-05, 11.661118346040986], [4.2195551620370075, 11.088787504137784, 9.110108015574717, -0.2577716480407009, 62.66079695960617, 0.040196434961501715], [4.821665310967611e-05, 5.914426085147731e-05, 1.228125721105727e-05, 10.576230432672235, 3.301641033564879e-05, 47.64894668473626]], 'compliance_tensor': [[10.275023777431638, -2.1155672876890352, -3.710038485448926, 9.478889445836047e-06, -0.7489507714845502, -1.7769015997258926e-05], [-2.115567287689039, 9.464242763840263, -2.906374975240839, -2.1997801930740315e-05, -0.7954466521428103, -1.885403480195678e-05], [-3.7100384854489206, -2.906374975240839, 8.418564160019429, -1.6055487546209095e-05, 0.009187900862223266, 1.111217187591966e-05], [9.478889445833796e-06, -2.199780193073693e-05, -1.605548754620927e-05, 19.628042251904102, -1.2379693076619414e-05, -4.579675505371973], [-0.7489507714845517, -0.7954466521428096, 0.009187900862223628, -1.2379693076619255e-05, 16.186883066160327, -1.950279315632687e-05], [-1.7769015997257774e-05, -1.885403480196035e-05, 1.1112171875920551e-05, -4.579675505371971, -1.95027931563266e-05, 22.070316781266268]], 'warnings': [], 'nsites': 11}",0.0
997,mp-21778,Li2Fe2(MoO4)3,"{'Li': 2.0, 'Fe': 2.0, 'Mo': 3.0, 'O': 12.0}",0.38874974430987563,3.3203616976574706,,0.0
998,mp-22038,RbFe(SeO4)2,"{'Rb': 1.0, 'Fe': 1.0, 'Se': 2.0, 'O': 8.0}",0.45757781821041815,3.3292062346556985,,0.0
999,mp-25977,LiFe(PO3)4,"{'Li': 1.0, 'Fe': 1.0, 'P': 4.0, 'O': 12.0}",0.43226359359788946,2.493968716591656,,0.0
1000,mp-541954,Fe2P2H4O9,"{'Fe': 2.0, 'P': 2.0, 'H': 4.0, 'O': 9.0}",0.47042365407317316,3.06439356049393,,0.0
1001,mp-552651,La2Fe2Se2O3,"{'La': 2.0, 'Fe': 2.0, 'Se': 2.0, 'O': 3.0}",0.3258611362869936,6.133151350579712,,0.0
1002,mp-556581,Fe2PClO4,"{'Fe': 2.0, 'P': 1.0, 'Cl': 1.0, 'O': 4.0}",0.3648402826254342,3.543714507252115,,0.0
1003,mp-643071,Yb4Mg4Fe3H22,"{'Yb': 4.0, 'Mg': 4.0, 'Fe': 3.0, 'H': 22.0}",0.13782675152598461,5.63231300317654,,0.0
1004,mp-643564,FeH2SO5,"{'Fe': 1.0, 'H': 2.0, 'S': 1.0, 'O': 5.0}",0.4936222291498411,2.9418241945726136,,0.0
1005,mp-653429,Mn7FeCl3O10,"{'Mn': 7.0, 'Fe': 1.0, 'Cl': 3.0, 'O': 10.0}",0.337485494185424,3.947310251224707,,0.0
1006,mp-695492,Ca2Fe3Sb(PO4)6,"{'Ca': 2.0, 'Fe': 3.0, 'Sb': 1.0, 'P': 6.0, 'O': 24.0}",0.47457387818071767,3.2482802568405194,,0.0
1007,mp-7331,Cs2MgFe(CN)6,"{'Cs': 2.0, 'Mg': 1.0, 'Fe': 1.0, 'C': 6.0, 'N': 6.0}",0.21542439594113275,2.901470384678898,,0.0
1008,mp-745166,Sr2Fe2H2OF10,"{'Sr': 2.0, 'Fe': 2.0, 'H': 2.0, 'O': 1.0, 'F': 10.0}",0.21769462520496263,3.765354835961156,,0.0
1009,mp-755153,Li4Cr3FeO8,"{'Li': 4.0, 'Cr': 3.0, 'Fe': 1.0, 'O': 8.0}",0.622322137708575,4.116437953480648,,0.06418687502662834
1010,mp-779891,Li6Mn5Fe(BO3)6,"{'Li': 6.0, 'Mn': 5.0, 'Fe': 1.0, 'B': 6.0, 'O': 18.0}",0.4748767948691253,3.190777959073171,,0.9134232936585107
1011,mp-850003,NaCaFe3(PO4)4,"{'Na': 1.0, 'Ca': 1.0, 'Fe': 3.0, 'P': 4.0, 'O': 16.0}",0.5058610032324808,3.258346855152529,,0.0
1012,mp-862301,Ba2ScFeAsO3,"{'Ba': 2.0, 'Sc': 1.0, 'Fe': 1.0, 'As': 1.0, 'O': 3.0}",0.3886420029779993,5.400712357205953,,0.0
1013,mp-867784,Li8MnFe7(PO4)8,"{'Li': 8.0, 'Mn': 1.0, 'Fe': 7.0, 'P': 8.0, 'O': 32.0}",0.5239782282609455,3.4566939585190513,,0.0
1014,mp-1176939,Li6V3Fe(PO4)6,"{'Li': 6.0, 'V': 3.0, 'Fe': 1.0, 'P': 6.0, 'O': 24.0}",0.4929368401994667,2.8923239048651204,,0.0
1015,mp-1177778,Li2VFe(P2O7)2,"{'Li': 2.0, 'V': 1.0, 'Fe': 1.0, 'P': 4.0, 'O': 14.0}",0.48702342329628096,2.8977533350286753,,0.48798530300153686
1016,mp-1190395,FePH12(CBr)4,"{'Fe': 1.0, 'P': 1.0, 'H': 12.0, 'C': 4.0, 'Br': 4.0}",0.0368720080574892,1.8719884263838416,,0.0
1017,mp-1192997,CsFeP(H6O5)2,"{'Cs': 1.0, 'Fe': 1.0, 'P': 1.0, 'H': 12.0, 'O': 10.0}",0.4266219303362507,2.480023320084641,,0.0
1018,mp-1196551,Rb7SmFe6(P4O17)2,"{'Rb': 7.0, 'Sm': 1.0, 'Fe': 6.0, 'P': 8.0, 'O': 34.0}",0.5217834974566021,3.6277029862022205,,0.0
1019,mp-1203480,Rb7DyFe6(P4O17)2,"{'Rb': 7.0, 'Dy': 1.0, 'Fe': 6.0, 'P': 8.0, 'O': 34.0}",0.5232811382104418,3.6757441042661374,,0.0
1020,mp-1221180,Na5Ca2Fe3(PO4)6,"{'Na': 5.0, 'Ca': 2.0, 'Fe': 3.0, 'P': 6.0, 'O': 24.0}",0.5392715956905806,3.234334943782873,,0.0
1021,mp-1227885,Ca2MgFe(CO3)4,"{'Ca': 2.0, 'Mg': 1.0, 'Fe': 1.0, 'C': 4.0, 'O': 12.0}",0.5289851128182629,2.9632578323189613,,0.755925500000032
1022,mp-1273649,FePH6NO5,"{'Fe': 1.0, 'P': 1.0, 'H': 6.0, 'N': 1.0, 'O': 5.0}",0.37144462915119,2.492926295703922,,0.0
1023,mp-1288691,FePH6NO5,"{'Fe': 1.0, 'P': 1.0, 'H': 6.0, 'N': 1.0, 'O': 5.0}",0.36922313023872655,2.4780168512803664,,0.2077400000004559
1024,mp-1640978,CaLaFeNiO6,"{'Ca': 1.0, 'La': 1.0, 'Fe': 1.0, 'Ni': 1.0, 'O': 6.0}",0.5859491534473952,5.613395796867936,,0.0
1025,mp-24619,FeH10N2OF5,"{'Fe': 1.0, 'H': 10.0, 'N': 2.0, 'O': 1.0, 'F': 5.0}",0.11729097512718321,1.955770356858142,,0.0
1026,mp-25407,LiFePO4F,"{'Li': 1.0, 'Fe': 1.0, 'P': 1.0, 'O': 4.0, 'F': 1.0}",0.45566820280690773,3.235971208461808,,0.0
1027,mp-504945,MnFeH4O2F5,"{'Mn': 1.0, 'Fe': 1.0, 'H': 4.0, 'O': 2.0, 'F': 5.0}",0.19523862125431113,2.816487955284939,,0.0
1028,mp-532755,K4MgFe3(PO4)5,"{'K': 4.0, 'Mg': 1.0, 'Fe': 3.0, 'P': 5.0, 'O': 20.0}",0.5117015725501828,2.9097368235489673,,0.0
1029,mp-550944,Sr2Fe2Se2OF2,"{'Sr': 2.0, 'Fe': 2.0, 'Se': 2.0, 'O': 1.0, 'F': 2.0}",0.2712316347824927,5.049978059033796,,0.0
1030,mp-557020,Sr3Fe2Cu2Se2O5,"{'Sr': 3.0, 'Fe': 2.0, 'Cu': 2.0, 'Se': 2.0, 'O': 5.0}",0.40939687389202445,5.6285260377832875,,0.0
1031,mp-561063,BaFe2P2O7F2,"{'Ba': 1.0, 'Fe': 2.0, 'P': 2.0, 'O': 7.0, 'F': 2.0}",0.4208920468188333,3.9274154506717767,,0.0
1032,mp-694909,Li11Fe3B24(PbO24)2,"{'Li': 11.0, 'Fe': 3.0, 'B': 24.0, 'Pb': 2.0, 'O': 48.0}",0.5529240960087773,3.347550065023958,,0.3789963920421968
1033,mp-698793,Ba5SrLa2Fe4O15,"{'Ba': 5.0, 'Sr': 1.0, 'La': 2.0, 'Fe': 4.0, 'O': 15.0}",0.5159315781514895,5.68262853424888,,0.0
1034,mp-698854,Ba5SrNd2Fe4O15,"{'Ba': 5.0, 'Sr': 1.0, 'Nd': 2.0, 'Fe': 4.0, 'O': 15.0}",0.5326294153434737,5.807737309578283,,0.0
1035,mp-703231,CdFe2Sb2(PO4)6,"{'Cd': 1.0, 'Fe': 2.0, 'Sb': 2.0, 'P': 6.0, 'O': 24.0}",0.47345252694758605,3.6958709099538583,,0.0
1036,mp-735530,Ba2Fe3P6HO22,"{'Ba': 2.0, 'Fe': 3.0, 'P': 6.0, 'H': 1.0, 'O': 22.0}",0.4988179306204944,3.6272949329723287,,0.0
1037,mp-743773,Na3Ca18Fe(PO4)14,"{'Na': 3.0, 'Ca': 18.0, 'Fe': 1.0, 'P': 14.0, 'O': 56.0}",0.5138661683781806,3.029201959692937,,0.0
1038,mp-758349,KFeP4(H2O7)2,"{'K': 1.0, 'Fe': 1.0, 'P': 4.0, 'H': 4.0, 'O': 14.0}",0.4650304831070839,2.511383152690361,,0.0
1039,mp-771204,Na3FeSiCO7,"{'Na': 3.0, 'Fe': 1.0, 'Si': 1.0, 'C': 1.0, 'O': 7.0}",0.5214609885240765,2.9370946290299185,,0.0
1040,mp-777585,Na5Fe2P2(CO7)2,"{'Na': 5.0, 'Fe': 2.0, 'P': 2.0, 'C': 2.0, 'O': 14.0}",0.49839089033323475,2.832016516681521,,0.0
1041,mp-778260,Li6Mn5Fe(BO3)6,"{'Li': 6.0, 'Mn': 5.0, 'Fe': 1.0, 'B': 6.0, 'O': 18.0}",0.4746641928740732,3.1893494501057993,,0.7020985714367711
1042,mp-778844,Li8MnFe7(BO3)8,"{'Li': 8.0, 'Mn': 1.0, 'Fe': 7.0, 'B': 8.0, 'O': 24.0}",0.502523869485475,3.281353543484644,,0.0
1043,mp-849222,FeH10N2Cl5O,"{'Fe': 1.0, 'H': 10.0, 'N': 2.0, 'Cl': 5.0, 'O': 1.0}",0.09254071142059898,1.918174465701094,,0.0
1044,mp-1105952,NaFeSO4F,"{'Na': 1.0, 'Fe': 1.0, 'S': 1.0, 'O': 4.0, 'F': 1.0}",0.46825107986121584,3.2096189349949933,,0.0
1045,mp-1178101,Li10Sc9Fe(SiO3)20,"{'Li': 10.0, 'Sc': 9.0, 'Fe': 1.0, 'Si': 20.0, 'O': 60.0}",0.504958430808863,2.9906206502571595,,0.03899360000758634
1046,mp-1188970,Cs2CdFe(CN)6,"{'Cs': 2.0, 'Cd': 1.0, 'Fe': 1.0, 'C': 6.0, 'N': 6.0}",0.20585713782933696,3.1200374506630437,,0.0
1047,mp-1198666,Rb7EuFe6(P4O17)2,"{'Rb': 7.0, 'Eu': 1.0, 'Fe': 6.0, 'P': 8.0, 'O': 34.0}",0.5222095910049921,3.638356991113292,,0.0
1048,mp-1210021,NaFeAsO4F,"{'Na': 1.0, 'Fe': 1.0, 'As': 1.0, 'O': 4.0, 'F': 1.0}",0.4452234022043129,3.861990762549324,,0.0
1049,mp-1211889,K2ZrFe(PO4)3,"{'K': 2.0, 'Zr': 1.0, 'Fe': 1.0, 'P': 3.0, 'O': 12.0}",0.5160381779917634,3.183600191854865,,0.0
1050,mp-1212758,Fe2Co3H4(Se3O10)2,"{'Fe': 2.0, 'Co': 3.0, 'H': 4.0, 'Se': 6.0, 'O': 20.0}",0.44401392994249755,3.9140366718148183,,0.0
1051,mp-1216386,Y4Fe4Co12B3C,"{'Y': 4.0, 'Fe': 4.0, 'Co': 12.0, 'B': 3.0, 'C': 1.0}",0.18183939073686317,7.580026513329646,,0.0
1052,mp-1218631,Sr3LaTa2(FeO6)2,"{'Sr': 3.0, 'La': 1.0, 'Ta': 2.0, 'Fe': 2.0, 'O': 12.0}",0.556717962349076,6.758046875369787,,0.41913112499258887
1053,mp-1221050,NaFe2Mo2H3O10,"{'Na': 1.0, 'Fe': 2.0, 'Mo': 2.0, 'H': 3.0, 'O': 10.0}",0.4518168520881973,3.694535818701699,,0.0
1054,mp-1222830,Li2InFe(P2O7)2,"{'Li': 2.0, 'In': 1.0, 'Fe': 1.0, 'P': 4.0, 'O': 14.0}",0.4754454977287884,3.177810375659717,,0.0
1055,mp-1223053,La4FeAs4Ru3O4,"{'La': 4.0, 'Fe': 1.0, 'As': 4.0, 'Ru': 3.0, 'O': 4.0}",0.24030537230912313,7.13132673612417,,0.0
1056,mp-1223250,La2MnFeSe2O3,"{'La': 2.0, 'Mn': 1.0, 'Fe': 1.0, 'Se': 2.0, 'O': 3.0}",0.31102851634842377,6.011415658636089,,0.34499888888817054
1057,mp-1229069,Al3Tl4Fe(As2O7)4,"{'Al': 3.0, 'Tl': 4.0, 'Fe': 1.0, 'As': 8.0, 'O': 28.0}",0.44700144354602395,5.117145087636134,,0.0
1058,mp-1639214,CaLaTaFeO6,"{'Ca': 1.0, 'La': 1.0, 'Ta': 1.0, 'Fe': 1.0, 'O': 6.0}",0.5272960657987246,6.577330019202609,,0.0
1059,mp-1639336,CaLaFeSbO6,"{'Ca': 1.0, 'La': 1.0, 'Fe': 1.0, 'Sb': 1.0, 'O': 6.0}",0.5240137316580334,5.773188794363977,,0.0
1060,mp-1639353,CaLaFeSbO6,"{'Ca': 1.0, 'La': 1.0, 'Fe': 1.0, 'Sb': 1.0, 'O': 6.0}",0.5233883407759607,5.766298708447612,,0.5662934999941527
1061,mp-24008,K2FeH2Cl5O,"{'K': 2.0, 'Fe': 1.0, 'H': 2.0, 'Cl': 5.0, 'O': 1.0}",0.20373507250836892,2.2134803963102048,,0.0
1062,mp-24447,FeCoH18(NCl)6,"{'Fe': 1.0, 'Co': 1.0, 'H': 18.0, 'N': 6.0, 'Cl': 6.0}",0.06130952361689743,1.9265274643454808,,0.0
1063,mp-42298,Na6Al4Fe(Si4O13)2,"{'Na': 6.0, 'Al': 4.0, 'Fe': 1.0, 'Si': 8.0, 'O': 26.0}",0.45172454757210423,2.6169974795003434,,0.0
1064,mp-505108,FeSnH12(OF)6,"{'Fe': 1.0, 'Sn': 1.0, 'H': 12.0, 'O': 6.0, 'F': 6.0}",0.21720112913037584,2.2327366134122326,,0.0
1065,mp-549058,Ba2Fe2Se2OF2,"{'Ba': 2.0, 'Fe': 2.0, 'Se': 2.0, 'O': 1.0, 'F': 2.0}",0.2916803445470802,5.4739962474659185,,0.0
1066,mp-549237,Sr2Fe2S2OF2,"{'Sr': 2.0, 'Fe': 2.0, 'S': 2.0, 'O': 1.0, 'F': 2.0}",0.271424828391604,4.400992641823383,,0.16108555555316428
1067,mp-561410,LiFeMoClO4,"{'Li': 1.0, 'Fe': 1.0, 'Mo': 1.0, 'Cl': 1.0, 'O': 4.0}",0.33485601128785625,3.330549245442334,,0.0
1068,mp-569543,CsLaZr6FeCl18,"{'Cs': 1.0, 'La': 1.0, 'Zr': 6.0, 'Fe': 1.0, 'Cl': 18.0}",0.10893277260158955,3.184780774448572,,0.0
1069,mp-696335,K2FeH2OF5,"{'K': 2.0, 'Fe': 1.0, 'H': 2.0, 'O': 1.0, 'F': 5.0}",0.30190419173917593,2.5946374695903582,,0.0