,mp_id,Formula,Composition,IPF,Density,Elastic_Tensor,E_above_Hull
199,mp-19102,Sr2FeO4,"{'O': 4.0, 'Fe': 1.0, 'Sr': 2.0}",0.5771798647859696,5.106824805695793,"{'G_Reuss': 63.0, 'G_VRH': 63.0, 'G_Voigt': 63.0, 'G_Voigt_Reuss_Hill': 63.0, 'K_Reuss': 111.0, 'K_VRH': 111.0, 'K_Voigt': 112.0, 'K_Voigt_Reuss_Hill': 111.0, 'elastic_anisotropy': 0.03, 'elastic_tensor': [[195.0, 60.0, 74.0, 0.0, 0.0, 0.0], [60.0, 195.0, 74.0, 0.0, 0.0, 0.0], [74.0, 74.0, 199.0, 0.0, 0.0, 0.0], [0.0, 0.0, 0.0, 59.0, 0.0, 0.0], [0.0, 0.0, 0.0, 0.0, 59.0, 0.0], [0.0, 0.0, 0.0, 0.0, 0.0, 70.0]], 'homogeneous_poisson': 0.26, 'poisson_ratio': 0.26, 'universal_anisotropy': 0.03, 'elastic_tensor_original': [[195.45076439777515, 59.80977518003604, 73.88090334955778, 0.0, 0.0, 0.0], [59.81058594552598, 195.45133308998777, 73.88111558253172, 0.0, 0.0, 0.0], [73.2088870063274, 73.2088870063274, 199.40193213099266, 0.0, 0.0, 0.0], [-2.778328554632561e-05, -4.1366595516748324e-05, -0.00010967981135290697, 59.465183650717194, 0.0, 0.0], [-2.8409951135489303e-05, -9.201984172663487e-05, -5.6709902460114764e-05, 0.0, 59.46520291735071, 0.0], [-0.00016907971412279092, -0.00015593973633969824, -0.00010257982655979342, 0.0, 0.0, 69.90492196595308]], 'compliance_tensor': [[6.2, -1.2, -1.8, 0.0, -0.0, 0.0], [-1.2, 6.2, -1.8, -0.0, -0.0, 0.0], [-1.8, -1.8, 6.4, 0.0, 0.0, -0.0], [0.0, -0.0, 0.0, 16.8, -0.0, 0.0], [-0.0, -0.0, 0.0, -0.0, 16.8, -0.0], [0.0, 0.0, -0.0, 0.0, -0.0, 14.3]], 'warnings': [], 'nsites': 7}",0.0
200,mp-19333,Fe2B2O5,"{'B': 2.0, 'O': 5.0, 'Fe': 2.0}",0.5044510548546951,3.748786014205185,,0.0
201,mp-19359,NaFeO2,"{'Na': 1.0, 'Fe': 1.0, 'O': 2.0}",0.5920539626991935,4.208426588436105,"{'G_Reuss': 70.0, 'G_VRH': 72.0, 'G_Voigt': 74.0, 'G_Voigt_Reuss_Hill': 72.0, 'K_Reuss': 113.0, 'K_VRH': 114.0, 'K_Voigt': 116.0, 'K_Voigt_Reuss_Hill': 114.0, 'elastic_anisotropy': 0.3, 'elastic_tensor': [[251.0, 80.0, 47.0, 1.0, 0.0, 0.0], [80.0, 251.0, 47.0, -1.0, 0.0, 0.0], [47.0, 47.0, 195.0, 0.0, 0.0, 0.0], [1.0, -1.0, 0.0, 55.0, 0.0, 0.0], [0.0, 0.0, 0.0, 0.0, 55.0, 1.0], [0.0, 0.0, 0.0, 0.0, 1.0, 85.0]], 'homogeneous_poisson': 0.24, 'poisson_ratio': 0.24, 'universal_anisotropy': 0.3, 'elastic_tensor_original': [[251.06966832110484, 79.88220332852543, 46.46912704204106, 0.035147625492471204, 0.0, 0.0], [79.9802967958539, 250.43281179693903, 46.453861712504334, 0.8223764500997308, 0.0, 0.0], [46.85851985440663, 46.85852305417715, 195.08520179153035, 0.0, 0.0, 0.0], [-1.4574842610791834, 2.176295797604515, -0.19450371760111806, 55.335525077280494, 0.0, 0.0], [-0.00018117226023981145, -0.0001640426156865132, -0.00042745839595464367, -1.4759128159380207e-05, 55.45901341904183, -1.8325243132559448], [-2.5210030514572237e-05, -0.00012929017117409007, 0.0002019169092441047, 0.0001547035129032044, -1.6235037094902838, 85.26087098371673]], 'compliance_tensor': [[4.6, -1.3, -0.8, -0.1, 0.0, -0.0], [-1.3, 4.6, -0.8, 0.1, 0.0, -0.0], [-0.8, -0.8, 5.5, 0.0, -0.0, 0.0], [-0.1, 0.1, 0.0, 18.1, -0.0, 0.0], [0.0, 0.0, -0.0, -0.0, 18.1, -0.3], [-0.0, -0.0, 0.0, 0.0, -0.3, 11.7]], 'warnings': [], 'nsites': 16}",0.0
202,mp-19739,Sc(FeGe)6,"{'Sc': 1.0, 'Fe': 6.0, 'Ge': 6.0}",0.16666412696084754,7.539333478828167,,0.0
203,mp-19963,TiFe2Sn,"{'Ti': 1.0, 'Fe': 2.0, 'Sn': 1.0}",0.18421765964796719,8.367357755094483,"{'G_Reuss': 106.0, 'G_VRH': 106.0, 'G_Voigt': 106.0, 'G_Voigt_Reuss_Hill': 106.0, 'K_Reuss': 181.0, 'K_VRH': 181.0, 'K_Voigt': 181.0, 'K_Voigt_Reuss_Hill': 181.0, 'elastic_anisotropy': 0.0, 'elastic_tensor': [[318.0, 113.0, 113.0, 0.0, 0.0, 0.0], [113.0, 318.0, 113.0, 0.0, 0.0, 0.0], [113.0, 113.0, 318.0, 0.0, 0.0, 0.0], [0.0, 0.0, 0.0, 108.0, 0.0, 0.0], [0.0, 0.0, 0.0, 0.0, 108.0, 0.0], [0.0, 0.0, 0.0, 0.0, 0.0, 108.0]], 'homogeneous_poisson': 0.26, 'poisson_ratio': 0.26, 'universal_anisotropy': 0.0, 'elastic_tensor_original': [[318.40122695319525, 112.5028056047912, 112.5028056047912, 0.0, 0.0, 0.0], [112.38719087627629, 318.48433060597995, 112.38719087627629, 0.0, 0.0, 0.0], [113.65376693334292, 113.65376693334292, 318.540560282663, 0.0, 0.0, 0.0], [-0.00017953641706778439, 0.0006797857215957121, 0.0007140623406099974, 107.7884788407191, 0.0, 0.0], [0.0001465631295732735, -6.913990387878679e-05, 0.00015054312404058482, 0.0, 107.7869507028436, 0.0], [-0.0009662553233338473, -0.001158398389540267, -0.0009654153245011799, 0.0, 0.0, 107.7878408316061]], 'compliance_tensor': [[3.9, -1.0, -1.0, 0.0, -0.0, -0.0], [-1.0, 3.9, -1.0, -0.0, 0.0, -0.0], [-1.0, -1.0, 3.9, -0.0, -0.0, 0.0], [0.0, -0.0, -0.0, 9.3, -0.0, -0.0], [-0.0, 0.0, -0.0, -0.0, 9.3, -0.0], [-0.0, -0.0, 0.0, -0.0, -0.0, 9.3]], 'warnings': [], 'nsites': 4}",0.0
204,mp-20095,Eu(FeP)2,"{'Eu': 1.0, 'Fe': 2.0, 'P': 2.0}",0.17736033903922369,6.95119174714746,,0.0
205,mp-20121,UFeSi,"{'U': 1.0, 'Fe': 1.0, 'Si': 1.0}",0.15840331485273362,11.54619927973112,,0.0
206,mp-21221,Pr(FeGe)2,"{'Pr': 1.0, 'Fe': 2.0, 'Ge': 2.0}",0.15742104181598227,7.4269460097610915,,0.0
207,mp-22113,Ca2Fe2O5,"{'Ca': 2.0, 'Fe': 2.0, 'O': 5.0}",0.5158955237610324,3.9140562172228197,,0.0
208,mp-22434,HfFeP,"{'Hf': 1.0, 'Fe': 1.0, 'P': 1.0}",0.14317211265699495,10.755335245579225,"{'G_Reuss': 123.0, 'G_VRH': 125.0, 'G_Voigt': 127.0, 'G_Voigt_Reuss_Hill': 125.0, 'K_Reuss': 213.0, 'K_VRH': 213.0, 'K_Voigt': 213.0, 'K_Voigt_Reuss_Hill': 213.0, 'elastic_anisotropy': 0.13, 'elastic_tensor': [[365.0, 126.0, 144.0, 0.0, 0.0, 0.0], [126.0, 342.0, 158.0, 0.0, 0.0, 0.0], [144.0, 158.0, 353.0, 0.0, 0.0, 0.0], [0.0, 0.0, 0.0, 143.0, 0.0, 0.0], [0.0, 0.0, 0.0, 0.0, 143.0, 0.0], [0.0, 0.0, 0.0, 0.0, 0.0, 136.0]], 'homogeneous_poisson': 0.25, 'poisson_ratio': 0.25, 'universal_anisotropy': 0.13, 'elastic_tensor_original': [[353.4173509790239, 144.27043110168006, 159.3330584472673, 0.0, 0.0, 0.0], [143.14744021702307, 364.90666710446453, 122.41352430916369, 0.0, 0.0, 0.0], [156.32576891210925, 130.2686347202597, 341.7433246782679, 0.0, 0.0, 0.0], [0.0065571434847521, 0.0067558135903348065, 0.0081822243483913, 136.11620529808397, 0.0, 0.0], [0.015709070417185146, 0.030867453685669503, 0.024102537764180993, 0.0, 142.7344208021033, 0.0], [-0.332534216888105, -0.32740418220514433, -0.33392049815358027, 0.0, 0.0, 143.02047211996597]], 'compliance_tensor': [[3.4, -0.8, -1.0, 0.0, 0.0, 0.0], [-0.8, 3.9, -1.4, 0.0, -0.0, 0.0], [-1.0, -1.4, 3.9, 0.0, 0.0, 0.0], [0.0, 0.0, 0.0, 7.0, 0.0, 0.0], [0.0, -0.0, 0.0, 0.0, 7.0, 0.0], [0.0, 0.0, 0.0, 0.0, 0.0, 7.3]], 'warnings': [], 'nsites': 12}",0.0
209,mp-22613,Nb3FeS6,"{'Nb': 3.0, 'Fe': 1.0, 'S': 6.0}",0.15820329699489374,5.194231840228939,,0.0
210,mp-29110,Al2(FeSi)3,"{'Al': 2.0, 'Fe': 3.0, 'Si': 3.0}",0.12551377756378085,5.163780866080237,,0.0
211,mp-3155,Sc3FeC4,"{'Sc': 3.0, 'Fe': 1.0, 'C': 4.0}",0.1313160118297123,4.427777483208082,"{'G_Reuss': 119.0, 'G_VRH': 120.0, 'G_Voigt': 122.0, 'G_Voigt_Reuss_Hill': 120.0, 'K_Reuss': 177.0, 'K_VRH': 178.0, 'K_Voigt': 179.0, 'K_Voigt_Reuss_Hill': 178.0, 'elastic_anisotropy': 0.11, 'elastic_tensor': [[373.0, 91.0, 116.0, 0.0, 0.0, 0.0], [91.0, 339.0, 104.0, 0.0, 0.0, 0.0], [116.0, 104.0, 277.0, 0.0, 0.0, 0.0], [0.0, 0.0, 0.0, 123.0, 0.0, 0.0], [0.0, 0.0, 0.0, 0.0, 129.0, 0.0], [0.0, 0.0, 0.0, 0.0, 0.0, 131.0]], 'homogeneous_poisson': 0.22, 'poisson_ratio': 0.22, 'universal_anisotropy': 0.11, 'elastic_tensor_original': [[276.6246718091141, 116.73575957320037, 103.8964521137006, 0.0, 0.0, 0.0], [116.14129004740391, 372.92285308985953, 90.3825231508462, 0.0, 0.0, 0.0], [104.57543141834589, 90.71938681036637, 338.59092675380026, 0.0, 0.0, 0.0], [0.0007655069881628875, 0.0008876937061465113, 0.0009760404099174492, 130.89413597928993, 0.0, 0.0], [-0.00013722639274366924, -0.0003592492828906082, 0.00012298975449625098, 0.0, 123.22330084344235, 0.0], [5.422989139920318e-05, 0.0001617563427342952, -8.85064894244216e-05, 0.0, 0.0, 128.51839550677823]], 'compliance_tensor': [[3.2, -0.5, -1.1, 0.0, -0.0, 0.0], [-0.5, 3.4, -1.1, 0.0, 0.0, 0.0], [-1.1, -1.1, 4.5, 0.0, 0.0, 0.0], [0.0, 0.0, 0.0, 8.1, 0.0, 0.0], [-0.0, 0.0, 0.0, 0.0, 7.8, 0.0], [0.0, 0.0, 0.0, 0.0, 0.0, 7.6]], 'warnings': [], 'nsites': 8}",0.0
212,mp-3787,RbFe2S3,"{'Rb': 1.0, 'Fe': 2.0, 'S': 3.0}",0.24133651062610254,3.5716676617158574,,0.0
213,mp-4088,La(FeSi)2,"{'La': 1.0, 'Fe': 2.0, 'Si': 2.0}",0.1619870600352024,6.226265158917528,"{'G_Reuss': 68.0, 'G_VRH': 70.0, 'G_Voigt': 73.0, 'G_Voigt_Reuss_Hill': 70.0, 'K_Reuss': 101.0, 'K_VRH': 106.0, 'K_Voigt': 111.0, 'K_Voigt_Reuss_Hill': 106.0, 'elastic_anisotropy': 0.42, 'elastic_tensor': [[220.0, 94.0, 62.0, 0.0, 0.0, 0.0], [94.0, 220.0, 62.0, 0.0, 0.0, 0.0], [62.0, 62.0, 127.0, 0.0, 0.0, 0.0], [0.0, 0.0, 0.0, 79.0, 0.0, 0.0], [0.0, 0.0, 0.0, 0.0, 79.0, 0.0], [0.0, 0.0, 0.0, 0.0, 0.0, 90.0]], 'homogeneous_poisson': 0.23, 'poisson_ratio': 0.23, 'universal_anisotropy': 0.42, 'elastic_tensor_original': [[219.89673256101568, 93.81590359278206, 56.23690259716823, -5.599974308520514e-06, 5.599974308520514e-06, 0.0], [93.81590359278208, 219.89673256101568, 56.23690259716823, 5.599974308663726e-06, 5.7132962064687624e-06, 0.0], [67.68131453443196, 67.68131453443196, 127.32105561559763, -1.2799760374990325e-05, -1.2799760374990325e-05, 0.0], [0.0, 1.582940416502862e-07, 0.0, 78.55474647982426, 4.035582552485775e-07, 7.914697855220148e-08], [1.582940418956147e-07, 0.0, 0.0, -4.0355825524408384e-07, 78.55474647982426, 7.914707708222101e-08], [0.8966563384637206, -0.896656338463751, 0.0, 5.0000386908869325e-08, -5.000038691063268e-08, 89.66181381681363]], 'compliance_tensor': [[5.9, -2.0, -1.9, 0.0, -0.0, 0.0], [-2.0, 5.9, -1.9, -0.0, 0.0, 0.0], [-1.9, -1.9, 9.7, -0.0, -0.0, 0.0], [0.0, -0.0, -0.0, 12.7, 0.0, -0.0], [-0.0, 0.0, -0.0, 0.0, 12.7, -0.0], [0.0, 0.0, 0.0, -0.0, -0.0, 11.2]], 'warnings': ['Contains a rare earth element'], 'nsites': 5}",0.0
214,mp-4196,NdFeSi2,"{'Nd': 1.0, 'Fe': 1.0, 'Si': 2.0}",0.1801205340396293,6.069993532662315,"{'G_Reuss': 80.0, 'G_VRH': 81.0, 'G_Voigt': 82.0, 'G_Voigt_Reuss_Hill': 81.0, 'K_Reuss': 114.0, 'K_VRH': 115.0, 'K_Voigt': 116.0, 'K_Voigt_Reuss_Hill': 115.0, 'elastic_anisotropy': 0.14, 'elastic_tensor': [[211.0, 62.0, 79.0, 0.0, 0.0, 0.0], [62.0, 178.0, 70.0, 0.0, 0.0, 0.0], [79.0, 70.0, 232.0, 0.0, 0.0, 0.0], [0.0, 0.0, 0.0, 91.0, 0.0, 0.0], [0.0, 0.0, 0.0, 0.0, 94.0, 0.0], [0.0, 0.0, 0.0, 0.0, 0.0, 86.0]], 'homogeneous_poisson': 0.22, 'poisson_ratio': 0.22, 'universal_anisotropy': 0.14, 'elastic_tensor_original': [[211.23283486148853, 65.20632333363858, 77.38430650208754, 0.0, 0.0, 0.0], [57.98975191415364, 177.5899482180957, 64.10141431393394, 0.0, 0.0, 1.039998298300726e-05], [80.25563920883198, 75.83574854884596, 231.6224626175574, 0.0, 0.0, 4.399937742313322e-06], [0.0, 0.0, 0.0, 91.3760503266026, 5.400002648521945e-06, 0.0], [0.0, 0.0, 0.0, 0.0, 93.7347548826055, 0.0], [1.0287689508663835e-05, 0.0, 0.0, 0.0, 0.0, 86.12038562896905]], 'compliance_tensor': [[5.7, -1.4, -1.5, 0.0, 0.0, -0.0], [-1.4, 6.7, -1.6, 0.0, 0.0, -0.0], [-1.5, -1.6, 5.3, 0.0, 0.0, 0.0], [0.0, 0.0, 0.0, 10.9, -0.0, 0.0], [0.0, 0.0, 0.0, -0.0, 10.7, 0.0], [-0.0, -0.0, 0.0, 0.0, 0.0, 11.6]], 'warnings': ['Contains a rare earth element'], 'nsites': 8}",0.0
215,mp-4689,Al7FeCu2,"{'Al': 7.0, 'Fe': 1.0, 'Cu': 2.0}",0.1100703181703261,4.186620347913164,,0.0
216,mp-4883,Ba(FeP)2,"{'Ba': 1.0, 'Fe': 2.0, 'P': 2.0}",0.22574450218651027,5.702756767321699,"{'G_Reuss': 53.0, 'G_VRH': 56.0, 'G_Voigt': 58.0, 'G_Voigt_Reuss_Hill': 56.0, 'K_Reuss': 87.0, 'K_VRH': 90.0, 'K_Voigt': 94.0, 'K_Voigt_Reuss_Hill': 90.0, 'elastic_anisotropy': 0.55, 'elastic_tensor': [[192.0, 61.0, 57.0, 0.0, 0.0, 0.0], [61.0, 192.0, 57.0, 0.0, 0.0, 0.0], [57.0, 57.0, 109.0, 0.0, 0.0, 0.0], [0.0, 0.0, 0.0, 49.0, 0.0, 0.0], [0.0, 0.0, 0.0, 0.0, 49.0, 0.0], [0.0, 0.0, 0.0, 0.0, 0.0, 86.0]], 'homogeneous_poisson': 0.24, 'poisson_ratio': 0.24, 'universal_anisotropy': 0.55, 'elastic_tensor_original': [[191.6986095016116, 60.545033264711215, 58.413017570002935, 0.0, 0.0, 0.0], [60.54268765994865, 191.69434665199924, 58.40977991611276, 0.0, 0.0, 0.0], [55.90241975214362, 55.90241975214362, 108.89381819316995, 0.0, 0.0, 0.0], [-0.0007458140713361043, -7.700838821510857e-05, -0.0005151777938902128, 49.466851336019175, 0.0, 0.0], [0.0025152555754731055, 0.0029707810968369426, 0.003077957619913267, 0.0, 49.46764985737914, 0.0], [-0.000350479481006877, -7.058603092944387e-05, -0.0001675028701143591, 0.0, 0.0, 85.65205745873367]], 'compliance_tensor': [[6.4, -1.2, -2.7, 0.0, -0.0, 0.0], [-1.2, 6.4, -2.7, 0.0, -0.0, -0.0], [-2.7, -2.7, 12.0, -0.0, 0.0, 0.0], [0.0, 0.0, -0.0, 20.2, -0.0, -0.0], [-0.0, -0.0, 0.0, -0.0, 20.2, 0.0], [0.0, -0.0, 0.0, -0.0, 0.0, 11.7]], 'warnings': [], 'nsites': 5}",0.0
217,mp-505147,Cs6Fe2O5,"{'Cs': 6.0, 'Fe': 2.0, 'O': 5.0}",0.5561428227554941,4.657677449023846,,0.0
218,mp-505332,LaFeSi,"{'La': 1.0, 'Fe': 1.0, 'Si': 1.0}",0.16556574698085802,6.127574045141812,"{'G_Reuss': 8.0, 'G_VRH': 24.0, 'G_Voigt': 39.0, 'G_Voigt_Reuss_Hill': 24.0, 'K_Reuss': 6.0, 'K_VRH': 38.0, 'K_Voigt': 71.0, 'K_Voigt_Reuss_Hill': 38.0, 'elastic_anisotropy': 30.77, 'elastic_tensor': [[176.0, 77.0, 30.0, 0.0, 0.0, 0.0], [77.0, 176.0, 30.0, 0.0, 0.0, 0.0], [30.0, 30.0, 11.0, 0.0, 0.0, 0.0], [0.0, 0.0, 0.0, 18.0, 0.0, 0.0], [0.0, 0.0, 0.0, 0.0, 18.0, 0.0], [0.0, 0.0, 0.0, 0.0, 0.0, 84.0]], 'homogeneous_poisson': 0.25, 'poisson_ratio': 0.25, 'universal_anisotropy': 30.77, 'elastic_tensor_original': [[175.90972686057066, 76.68797122921441, 30.55154888331468, 0.0, 0.0, 0.0], [76.68797122921441, 175.90972686057066, 30.55154888331468, 0.0, 0.0, 0.0], [30.233312853813125, 30.233312853813125, 10.790863118492894, 0.0, 0.0, 0.0], [0.0, 0.0, 0.0, 18.03507757457121, 0.0, 0.0], [0.0, 0.0, 0.0, 0.0, 18.03507757457121, 0.0], [0.8401653865169343, -0.8401653865169343, 0.0, 0.0, 0.0, 84.01262813616376]], 'compliance_tensor': [[11.2, 1.1, -34.6, 0.0, 0.0, 0.0], [1.1, 11.2, -34.6, 0.0, 0.0, 0.0], [-34.6, -34.6, 287.6, 0.0, 0.0, 0.0], [0.0, 0.0, 0.0, 55.4, 0.0, 0.0], [0.0, 0.0, 0.0, 0.0, 55.4, 0.0], [0.0, 0.0, 0.0, 0.0, 0.0, 11.9]], 'warnings': ['Contains a rare earth element'], 'nsites': 6}",0.0
219,mp-510619,Fe3Mo3N,"{'Fe': 3.0, 'Mo': 3.0, 'N': 1.0}",0.17479949734271574,9.2789338513069,,0.0
220,mp-5434,Y2Fe14B,"{'Y': 2.0, 'Fe': 14.0, 'B': 1.0}",0.20246714890330594,7.0858759602095,,0.0
221,mp-582357,Eu(FeSi)2,"{'Eu': 1.0, 'Fe': 2.0, 'Si': 2.0}",0.1730435758719695,6.69793234258608,,0.0
222,mp-624492,Li(Fe3Ge2)2,"{'Li': 1.0, 'Fe': 6.0, 'Ge': 4.0}",0.18318550584879445,7.323536906496802,"{'G_Reuss': 63.0, 'G_VRH': 65.0, 'G_Voigt': 67.0, 'G_Voigt_Reuss_Hill': 65.0, 'K_Reuss': 135.0, 'K_VRH': 135.0, 'K_Voigt': 135.0, 'K_Voigt_Reuss_Hill': 135.0, 'elastic_anisotropy': 0.34, 'elastic_tensor': [[243.0, 96.0, 74.0, -8.0, 0.0, -1.0], [96.0, 243.0, 74.0, 8.0, -0.0, 0.0], [74.0, 74.0, 243.0, 0.0, -0.0, 0.0], [-8.0, 8.0, 0.0, 50.0, 0.0, 0.0], [0.0, -0.0, -0.0, 0.0, 50.0, -8.0], [-1.0, 0.0, 0.0, 0.0, -8.0, 74.0]], 'homogeneous_poisson': 0.29, 'poisson_ratio': 0.29, 'universal_anisotropy': 0.34, 'elastic_tensor_original': [[243.89362524863475, 94.93613635822318, 73.96848059246261, 8.314859956180664, 0.0, 0.0], [94.12577683199618, 244.96989235748447, 73.54483457870404, -7.943707182316368, 0.0, 0.0], [73.9783372350892, 73.97832667499934, 243.45047837825393, 0.0, 0.0, 0.0], [7.367334063870117, -7.911734432076278, 0.4981508166474049, 50.133522250015616, 0.0, 0.0], [0.0067005798563238355, 0.025103417020815408, -0.018813926133156873, -0.004552721911514133, 50.28977597688053, 7.5712609319681095], [0.05521135166785125, 0.06717444923218509, 0.07380393638831592, -0.015128518852541174, 7.547847459221898, 72.88341431827527]], 'compliance_tensor': [[5.1, -1.7, -1.0, 1.1, -0.0, 0.1], [-1.7, 5.1, -1.0, -1.1, 0.0, -0.0], [-1.0, -1.0, 4.7, -0.0, 0.0, -0.0], [1.1, -1.1, -0.0, 20.2, -0.0, -0.0], [-0.0, 0.0, 0.0, -0.0, 20.2, 2.1], [0.1, -0.0, -0.0, -0.0, 2.1, 13.8]], 'warnings': [], 'nsites': 11}",0.0
223,mp-649213,Th6FeBr15,"{'Th': 6.0, 'Fe': 1.0, 'Br': 15.0}",0.09848302095277697,5.589109521369505,,0.0
224,mp-760680,Li2Fe12P7,"{'Li': 2.0, 'Fe': 12.0, 'P': 7.0}",0.17402545639953934,6.179266516605921,,0.0
225,mp-776692,LiFe2F7,"{'Li': 1.0, 'Fe': 2.0, 'F': 7.0}",0.15009687077399625,3.386589581608451,,0.0
226,mp-8306,Ba3FeN3,"{'Ba': 3.0, 'Fe': 1.0, 'N': 3.0}",0.2903487904128355,5.196240137983644,"{'G_Reuss': 19.0, 'G_VRH': 19.0, 'G_Voigt': 20.0, 'G_Voigt_Reuss_Hill': 19.0, 'K_Reuss': 29.0, 'K_VRH': 33.0, 'K_Voigt': 37.0, 'K_Voigt_Reuss_Hill': 33.0, 'elastic_anisotropy': 0.6, 'elastic_tensor': [[49.0, 9.0, 32.0, 0.0, 0.0, 0.0], [9.0, 49.0, 32.0, 0.0, 0.0, 0.0], [32.0, 32.0, 87.0, 0.0, 0.0, 0.0], [0.0, 0.0, 0.0, 20.0, 0.0, 0.0], [0.0, 0.0, 0.0, 0.0, 20.0, 0.0], [0.0, 0.0, 0.0, 0.0, 0.0, 20.0]], 'homogeneous_poisson': 0.26, 'poisson_ratio': 0.26, 'universal_anisotropy': 0.6, 'elastic_tensor_original': [[49.48472870319098, 7.6991970343672484, 31.762572915156735, 0.0, 0.0, -0.026621049470673036], [8.819770949185815, 49.76544380076979, 31.92440695938818, 0.0, 0.0, -0.014564113244279676], [31.687518842547302, 31.68751604305908, 87.32680774978435, 0.0, 0.0, 9.565620995326335e-07], [0.3049576067534603, -0.1666903084682705, 0.011216834899740432, 20.282198943130194, -0.00649696985107522, -0.002989756863620729], [-0.08867390988068202, 0.0066739094078158544, -0.007482271275115586, -0.0016151176574510562, 20.300914071569302, 0.010083802221071], [0.24601241498954465, 0.32351854834164134, -0.04689606831461317, 0.0, 0.0, 19.993475544051808]], 'compliance_tensor': [[26.7, 2.1, -10.5, 0.0, -0.0, -0.0], [2.1, 26.7, -10.5, 0.0, -0.0, -0.0], [-10.5, -10.5, 19.1, -0.0, 0.0, 0.0], [0.0, 0.0, -0.0, 49.3, -0.0, 0.0], [-0.0, -0.0, 0.0, -0.0, 49.3, 0.0], [-0.0, -0.0, 0.0, -0.0, -0.0, 49.2]], 'warnings': [], 'nsites': 14}",0.0
227,mp-8648,TiFeSi,"{'Ti': 1.0, 'Fe': 1.0, 'Si': 1.0}",0.1501576695810445,5.624878004168807,"{'G_Reuss': 105.0, 'G_VRH': 109.0, 'G_Voigt': 113.0, 'G_Voigt_Reuss_Hill': 109.0, 'K_Reuss': 183.0, 'K_VRH': 183.0, 'K_Voigt': 183.0, 'K_Voigt_Reuss_Hill': 183.0, 'elastic_anisotropy': 0.4, 'elastic_tensor': [[264.0, 131.0, 144.0, 0.0, 0.0, 0.0], [131.0, 332.0, 99.0, 0.0, 0.0, 0.0], [144.0, 99.0, 306.0, 0.0, 0.0, 0.0], [0.0, 0.0, 0.0, 113.0, 0.0, 0.0], [0.0, 0.0, 0.0, 0.0, 137.0, 0.0], [0.0, 0.0, 0.0, 0.0, 0.0, 139.0]], 'homogeneous_poisson': 0.25, 'poisson_ratio': 0.25, 'universal_anisotropy': 0.4, 'elastic_tensor_original': [[305.81234083506547, 143.77773512943907, 98.37670313364579, 0.0, 0.0, 0.0], [143.92726090936614, 264.4459233969664, 130.72636071245478, 0.0, 0.0, 0.0], [99.63301790722808, 131.8259173578933, 332.031481314014, 0.0, 0.0, 0.0], [-0.18538881422206982, -0.17769181735090175, -0.17454931671739027, 139.08521352064486, 0.0, 0.0], [0.053694189532172996, 0.05358523597756963, 0.05269102597552424, 0.0, 112.8403693021835, 0.0], [-0.00707232919388977, -0.007908212454414441, -0.0075951096525323685, 0.0, 0.0, 136.5810853195908]], 'compliance_tensor': [[5.8, -1.6, -2.2, 0.0, 0.0, 0.0], [-1.6, 3.8, -0.5, 0.0, 0.0, 0.0], [-2.2, -0.5, 4.5, 0.0, 0.0, 0.0], [0.0, 0.0, 0.0, 8.9, 0.0, 0.0], [0.0, 0.0, 0.0, 0.0, 7.3, 0.0], [0.0, 0.0, 0.0, 0.0, 0.0, 7.2]], 'warnings': [], 'nsites': 18}",0.0
228,mp-865247,GaFeIr2,"{'Ga': 1.0, 'Fe': 1.0, 'Ir': 2.0}",0.1509201581609544,15.616029528488005,,0.0