,mp_id,Formula,Composition,IPF,Density,Elastic_Tensor,E_above_Hull
148,mp-568725,Dy(FeB)2,"{'Dy': 1.0, 'Fe': 2.0, 'B': 2.0}",0.1928314060287035,8.008231829204718,"{'G_Reuss': 73.0, 'G_VRH': 75.0, 'G_Voigt': 76.0, 'G_Voigt_Reuss_Hill': 75.0, 'K_Reuss': 113.0, 'K_VRH': 113.0, 'K_Voigt': 113.0, 'K_Voigt_Reuss_Hill': 113.0, 'elastic_anisotropy': 0.2, 'elastic_tensor': [[217.0, 55.0, 72.0, 0.0, 0.0, 0.0], [55.0, 217.0, 72.0, 0.0, 0.0, 0.0], [72.0, 72.0, 183.0, 0.0, 0.0, 0.0], [0.0, 0.0, 0.0, 69.0, 0.0, 0.0], [0.0, 0.0, 0.0, 0.0, 69.0, 0.0], [0.0, 0.0, 0.0, 0.0, 0.0, 104.0]], 'homogeneous_poisson': 0.23, 'poisson_ratio': 0.23, 'universal_anisotropy': 0.2, 'elastic_tensor_original': [[217.42462139254215, 55.09689925793755, 72.59695821429948, -1.540020394761233e-05, -1.540020394761233e-05, 0.0], [55.096899257934275, 217.42462139254215, 72.59695821429948, -1.5400203947452773e-05, -7.072768034591155e-08, 0.0], [70.73761212136, 70.73761212136, 182.91330529930462, -3.8799833760279776e-05, -3.8799833760279776e-05, 0.0], [0.0, -1.4661329325383186e-05, 0.0, 68.79793744246201, 4.3490099541975016e-07, -7.330661566231347e-06], [-1.4661329325383186e-05, 0.0, 0.0, -4.3490099541458315e-07, 68.79793744246201, -7.330666502825339e-06], [1.044499971388316, -1.0444999713949272, 0.0, -4.4999955683784773e-07, 4.098706471341766e-07, 104.44471494436381]], 'compliance_tensor': [[5.4, -0.8, -1.8, -0.0, 0.0, 0.0], [-0.8, 5.4, -1.8, 0.0, -0.0, 0.0], [-1.8, -1.8, 6.9, 0.0, 0.0, 0.0], [-0.0, 0.0, 0.0, 14.5, 0.0, 0.0], [0.0, -0.0, 0.0, 0.0, 14.5, 0.0], [0.0, 0.0, 0.0, 0.0, 0.0, 9.6]], 'warnings': ['Contains a rare earth element'], 'nsites': 5}",0.0
149,mp-5688,Er(FeSi)2,"{'Er': 1.0, 'Fe': 2.0, 'Si': 2.0}",0.15029028949086096,7.543533495870359,,0.0
150,mp-570039,La12Fe2I17,"{'La': 12.0, 'Fe': 2.0, 'I': 17.0}",0.18348123312317116,5.143969496758853,,0.0
151,mp-5778,AlVFe2,"{'Al': 1.0, 'V': 1.0, 'Fe': 2.0}",0.18172229698259232,6.773327621235783,"{'G_Reuss': 137.0, 'G_VRH': 137.0, 'G_Voigt': 137.0, 'G_Voigt_Reuss_Hill': 137.0, 'K_Reuss': 218.0, 'K_VRH': 218.0, 'K_Voigt': 218.0, 'K_Voigt_Reuss_Hill': 218.0, 'elastic_anisotropy': 0.0, 'elastic_tensor': [[405.0, 124.0, 124.0, 0.0, 0.0, 0.0], [124.0, 405.0, 124.0, 0.0, 0.0, 0.0], [124.0, 124.0, 405.0, 0.0, 0.0, 0.0], [0.0, 0.0, 0.0, 134.0, 0.0, 0.0], [0.0, 0.0, 0.0, 0.0, 134.0, 0.0], [0.0, 0.0, 0.0, 0.0, 0.0, 134.0]], 'homogeneous_poisson': 0.24, 'poisson_ratio': 0.24, 'universal_anisotropy': 0.0, 'elastic_tensor_original': [[405.1718877279809, 123.79134215192585, 123.79134215192585, 0.0, 0.0, 0.0], [123.76664864132934, 405.14895429531225, 123.76664864132934, 0.0, 0.0, 0.0], [123.78292032957859, 123.78292032957859, 405.16158813829395, 0.0, 0.0, 0.0], [-0.0005208794332286853, -0.0002243492179556196, -0.0008001851169734334, 134.3340138825305, 0.0, 0.0], [-0.0007838522947384558, -0.0007172091786969771, -0.001014032120007485, 0.0, 134.3339508086709, 0.0], [-0.00016196975454492056, -0.0006229187301807547, -0.0002584256596489499, 0.0, 0.0, 134.3336303769956]], 'compliance_tensor': [[2.9, -0.7, -0.7, -0.0, -0.0, 0.0], [-0.7, 2.9, -0.7, 0.0, -0.0, -0.0], [-0.7, -0.7, 2.9, -0.0, 0.0, -0.0], [-0.0, 0.0, -0.0, 7.4, -0.0, -0.0], [-0.0, -0.0, 0.0, -0.0, 7.4, -0.0], [0.0, -0.0, -0.0, -0.0, -0.0, 7.4]], 'warnings': [], 'nsites': 4}",0.0
152,mp-637965,Gd(FeGe)2,"{'Gd': 1.0, 'Fe': 2.0, 'Ge': 2.0}",0.16784766486211547,8.119575100551337,,0.0
153,mp-652399,Li(FeGe)6,"{'Li': 1.0, 'Fe': 6.0, 'Ge': 6.0}",0.17230842950688424,7.394401499386307,,0.0
154,mp-680207,Gd2(FeB)7,"{'Gd': 2.0, 'Fe': 7.0, 'B': 7.0}",0.18490076689759052,7.8386825401379285,,0.0
155,mp-754639,FeSeO4,"{'Fe': 1.0, 'Se': 1.0, 'O': 4.0}",0.5084522829381406,4.147474420078463,,0.0
156,mp-755094,Li2FeO2,"{'Li': 2.0, 'Fe': 1.0, 'O': 2.0}",0.4747475291710175,3.14971559558757,,0.0
157,mp-7600,Th(FeSi)2,"{'Th': 1.0, 'Fe': 2.0, 'Si': 2.0}",0.15089079406668066,8.501325575542893,"{'G_Reuss': 87.0, 'G_VRH': 88.0, 'G_Voigt': 90.0, 'G_Voigt_Reuss_Hill': 88.0, 'K_Reuss': 152.0, 'K_VRH': 154.0, 'K_Voigt': 155.0, 'K_Voigt_Reuss_Hill': 154.0, 'elastic_anisotropy': 0.22, 'elastic_tensor': [[268.0, 129.0, 97.0, 0.0, 0.0, 0.0], [129.0, 268.0, 97.0, 0.0, 0.0, 0.0], [97.0, 97.0, 219.0, 0.0, 0.0, 0.0], [0.0, 0.0, 0.0, 96.0, 0.0, 0.0], [0.0, 0.0, 0.0, 0.0, 96.0, 0.0], [0.0, 0.0, 0.0, 0.0, 0.0, 114.0]], 'homogeneous_poisson': 0.26, 'poisson_ratio': 0.26, 'universal_anisotropy': 0.22, 'elastic_tensor_original': [[267.8477385311013, 128.6452643347126, 93.93259309090998, -9.800073020256318e-06, -9.800073020256318e-06, 0.0], [128.64526433471258, 267.8477385311013, 93.93259309090998, -9.800073022336553e-06, -9.721121482210063e-06, 0.0], [99.53593379740681, 99.53593379740681, 218.7061360791525, -2.260035071196673e-05, -2.260035071196673e-05, 0.0], [0.0, -1.999047226504997e-05, 0.0, 96.19099123738347, -4.019351821592839e-08, -9.995214126341355e-06], [-1.999047226684423e-05, 0.0, 0.0, 4.0193518348381205e-08, 96.19099123738347, -9.995268886580123e-06], [1.1434201093250345, -1.1434201093229173, 0.0, 1.4999973885281251e-07, -1.1829027771480845e-07, 114.33608194272016]], 'compliance_tensor': [[5.2, -2.0, -1.4, -0.0, 0.0, 0.0], [-2.0, 5.2, -1.4, 0.0, -0.0, 0.0], [-1.4, -1.4, 5.8, 0.0, 0.0, 0.0], [-0.0, 0.0, 0.0, 10.4, 0.0, 0.0], [0.0, -0.0, 0.0, 0.0, 10.4, 0.0], [0.0, 0.0, 0.0, 0.0, 0.0, 8.7]], 'warnings': ['Contains a rare earth element'], 'nsites': 5}",0.0
158,mp-862288,AlFe2W,"{'Al': 1.0, 'Fe': 2.0, 'W': 1.0}",0.16552365154728016,10.595547042879602,"{'G_Reuss': 46.0, 'G_VRH': 64.0, 'G_Voigt': 82.0, 'G_Voigt_Reuss_Hill': 64.0, 'K_Reuss': 232.0, 'K_VRH': 232.0, 'K_Voigt': 232.0, 'K_Voigt_Reuss_Hill': 232.0, 'elastic_anisotropy': 3.85, 'elastic_tensor': [[264.0, 216.0, 216.0, -0.0, 0.0, -0.0], [216.0, 264.0, 216.0, -0.0, 0.0, -0.0], [216.0, 216.0, 264.0, -0.0, 0.0, -0.0], [-0.0, -0.0, -0.0, 120.0, -0.0, 0.0], [0.0, 0.0, 0.0, -0.0, 120.0, -0.0], [-0.0, -0.0, -0.0, 0.0, -0.0, 120.0]], 'homogeneous_poisson': 0.37, 'poisson_ratio': 0.37, 'universal_anisotropy': 3.85, 'elastic_tensor_original': [[263.68839468423187, 215.5591907663507, 215.5591907663507, -4.521566020734583, 4.685331953979673, -4.685331953979673], [215.5573495510193, 263.68472621660027, 215.5573495510194, 4.590220850935403, 4.519741953237821, 4.590212250813594], [215.55742084990308, 215.55559750826077, 263.68656027715195, 4.590181164371574, 4.683530737951472, 4.435885767982609], [0.661926679445519, 0.91433089674078, 0.13708489246606376, 119.70973529381473, 1.540271390118445, -1.5323974191430805], [-1.0578833745172465, -1.322590071142313, -1.0890078376239736, -2.3029488856757374, 122.05469785183446, -1.5473012284704646], [1.722514237948978, -0.6714567186114015, 0.6623289882327352, -1.5491473102145894, -0.01078216373523257, 119.70987993987943]], 'compliance_tensor': [[14.3, -6.4, -6.4, -0.0, -0.0, 0.0], [-6.4, 14.3, -6.4, 0.0, 0.0, -0.0], [-6.4, -6.4, 14.3, -0.0, 0.0, -0.0], [-0.0, 0.0, -0.0, 8.3, 0.0, -0.0], [-0.0, 0.0, 0.0, 0.0, 8.3, 0.0], [0.0, -0.0, -0.0, -0.0, 0.0, 8.3]], 'warnings': [], 'nsites': 4}",0.0
159,mp-864764,Ta2FeOs,"{'Ta': 2.0, 'Fe': 1.0, 'Os': 1.0}",0.13595772431198383,16.164722811212954,"{'G_Reuss': 81.0, 'G_VRH': 83.0, 'G_Voigt': 84.0, 'G_Voigt_Reuss_Hill': 83.0, 'K_Reuss': 249.0, 'K_VRH': 249.0, 'K_Voigt': 249.0, 'K_Voigt_Reuss_Hill': 249.0, 'elastic_anisotropy': 0.19, 'elastic_tensor': [[336.0, 205.0, 205.0, 0.0, 0.0, 0.0], [205.0, 336.0, 205.0, 0.0, 0.0, 0.0], [205.0, 205.0, 336.0, 0.0, 0.0, 0.0], [0.0, 0.0, 0.0, 97.0, 0.0, 0.0], [0.0, 0.0, 0.0, 0.0, 97.0, 0.0], [0.0, 0.0, 0.0, 0.0, 0.0, 97.0]], 'homogeneous_poisson': 0.35, 'poisson_ratio': 0.35, 'universal_anisotropy': 0.19, 'elastic_tensor_original': [[335.04628853253973, 204.22761677595645, 204.22761677595645, 0.0, 0.0, 0.0], [208.28625508817748, 338.9609142819952, 208.28625508817748, 0.0, 0.0, 0.0], [202.24258656718987, 202.24258656718987, 333.0763920344576, 0.0, 0.0, 0.0], [-0.0006464704088641473, -0.0006524970793434871, -0.0006333904005931403, 96.96689844419637, 0.0, 0.0], [-0.00019075678731044973, -0.00020326679522195061, -0.00019838012546718174, 0.0, 96.96691589087408, 0.0], [0.0007521338090291278, 0.0007618004818072559, 0.0007313904625770919, 0.0, 0.0, 96.96690305419926]], 'compliance_tensor': [[5.5, -2.1, -2.1, -0.0, 0.0, 0.0], [-2.1, 5.5, -2.1, 0.0, -0.0, 0.0], [-2.1, -2.1, 5.5, 0.0, 0.0, -0.0], [-0.0, 0.0, 0.0, 10.3, -0.0, -0.0], [0.0, -0.0, 0.0, -0.0, 10.3, -0.0], [0.0, 0.0, -0.0, -0.0, -0.0, 10.3]], 'warnings': [], 'nsites': 8}",0.0
160,mp-865187,MgFeRh2,"{'Mg': 1.0, 'Fe': 1.0, 'Rh': 2.0}",0.15279574249770486,8.317102651224308,"{'G_Reuss': 70.0, 'G_VRH': 73.0, 'G_Voigt': 76.0, 'G_Voigt_Reuss_Hill': 73.0, 'K_Reuss': 155.0, 'K_VRH': 155.0, 'K_Voigt': 155.0, 'K_Voigt_Reuss_Hill': 155.0, 'elastic_anisotropy': 0.4, 'elastic_tensor': [[224.0, 121.0, 121.0, 0.0, 0.0, 0.0], [121.0, 224.0, 121.0, 0.0, 0.0, 0.0], [121.0, 121.0, 224.0, 0.0, 0.0, 0.0], [0.0, 0.0, 0.0, 91.0, 0.0, 0.0], [0.0, 0.0, 0.0, 0.0, 91.0, 0.0], [0.0, 0.0, 0.0, 0.0, 0.0, 91.0]], 'homogeneous_poisson': 0.3, 'poisson_ratio': 0.3, 'universal_anisotropy': 0.4, 'elastic_tensor_original': [[224.19172138899685, 120.70793176874028, 120.70793176874028, 0.0, 0.0, 0.0], [122.72698709285466, 226.06861202291134, 122.72698709285466, 0.0, 0.0, 0.0], [118.54572528928045, 118.54572528928045, 222.29066434953398, 0.0, 0.0, 0.0], [0.0008297808032914472, 0.0008182007943942635, 0.000843430848526992, 91.45150561923693, 0.0, 0.0], [0.0008550793132345126, 0.000765019240068836, 0.000796079260541397, 0.0, 91.45119599244201, 0.0], [-0.0002705307710750295, -0.00031831410428261996, -0.00035032408879814717, 0.0, 0.0, 91.451234852564]], 'compliance_tensor': [[7.2, -2.5, -2.5, -0.0, 0.0, -0.0], [-2.5, 7.2, -2.5, -0.0, -0.0, 0.0], [-2.5, -2.5, 7.2, 0.0, -0.0, -0.0], [-0.0, -0.0, 0.0, 10.9, -0.0, -0.0], [0.0, -0.0, -0.0, -0.0, 10.9, -0.0], [-0.0, 0.0, -0.0, -0.0, -0.0, 10.9]], 'warnings': [], 'nsites': 4}",0.0
161,mp-9198,Fe(SiP)4,"{'Fe': 1.0, 'Si': 4.0, 'P': 4.0}",0.055335026870076964,3.345921987913434,"{'G_Reuss': 87.0, 'G_VRH': 91.0, 'G_Voigt': 94.0, 'G_Voigt_Reuss_Hill': 91.0, 'K_Reuss': 115.0, 'K_VRH': 115.0, 'K_Voigt': 115.0, 'K_Voigt_Reuss_Hill': 115.0, 'elastic_anisotropy': 0.46, 'elastic_tensor': [[229.0, 40.0, 79.0, -6.0, 11.0, 13.0], [40.0, 249.0, 57.0, 11.0, -13.0, -29.0], [79.0, 57.0, 207.0, -8.0, 4.0, 6.0], [-6.0, 11.0, -8.0, 106.0, 1.0, -10.0], [11.0, -13.0, 4.0, 1.0, 114.0, -14.0], [13.0, -29.0, 6.0, -10.0, -14.0, 83.0]], 'homogeneous_poisson': 0.19, 'poisson_ratio': 0.19, 'universal_anisotropy': 0.46, 'elastic_tensor_original': [[207.34865382848017, 56.97031907040422, 77.62834120734188, -7.396243637178497, 4.493401161845558, 8.161209164052693], [58.79913281056732, 242.7185369379534, 43.86793301215107, 30.824117593125052, -14.611399534056195, -9.70838775102946], [79.8430805362542, 44.190636918232116, 226.47197292733208, -13.576031334496905, 12.819295971340495, 3.8949768516179404], [-7.127755999063455, 30.586524934864165, -13.497759095266474, 87.31136075886798, 12.120561583270403, -11.169396402457506], [4.3451486558676375, -15.124360245375136, 12.40518194202651, 12.044849026972535, 114.08416063737455, -1.128159060420237], [8.093879310622803, -9.675571065859886, 4.12957354042978, -11.10048914349116, -1.4809656591104745, 105.61723762151789]], 'compliance_tensor': [[5.2, -0.6, -1.8, 0.1, -0.6, -1.0], [-0.6, 4.7, -1.2, -0.5, 0.9, 1.9], [-1.8, -1.2, 5.9, 0.4, -0.2, -0.6], [0.1, -0.5, 0.4, 9.7, -0.0, 0.9], [-0.6, 0.9, -0.2, -0.0, 9.2, 1.9], [-1.0, 1.9, -0.6, 0.9, 1.9, 13.3]], 'warnings': [], 'nsites': 9}",0.0
162,mp-1018176,GdFeC2,"{'Gd': 1.0, 'Fe': 1.0, 'C': 2.0}",0.1604355478802118,7.871539536851752,,0.0
163,mp-1019100,SmFeSi,"{'Sm': 1.0, 'Fe': 1.0, 'Si': 1.0}",0.1997474951801632,7.045097021894571,"{'G_Reuss': 43.0, 'G_VRH': 48.0, 'G_Voigt': 53.0, 'G_Voigt_Reuss_Hill': 48.0, 'K_Reuss': 71.0, 'K_VRH': 76.0, 'K_Voigt': 80.0, 'K_Voigt_Reuss_Hill': 76.0, 'elastic_anisotropy': 1.29, 'elastic_tensor': [[180.0, 47.0, 45.0, 0.0, 0.0, 0.0], [47.0, 180.0, 45.0, 0.0, 0.0, 0.0], [45.0, 45.0, 87.0, 0.0, 0.0, 0.0], [0.0, 0.0, 0.0, 33.0, 0.0, 0.0], [0.0, 0.0, 0.0, 0.0, 33.0, 0.0], [0.0, 0.0, 0.0, 0.0, 0.0, 95.0]], 'homogeneous_poisson': 0.24, 'poisson_ratio': 0.24, 'universal_anisotropy': 1.29, 'elastic_tensor_original': [[180.21770112922667, 46.98501050872373, 38.33224718314206, 0.0, 0.0, 0.0], [46.995990482996405, 180.23988267725275, 38.35721332464352, 0.0, 0.0, 0.0], [51.70406681807221, 51.70406681807221, 87.20589374620907, 0.0, 0.0, 0.0], [0.0, 0.0, 0.0, 33.3550543101475, 0.0, 0.0], [0.0, 0.0, 0.0, 0.0, 33.3550543101475, 0.0], [0.9544671464568144, -0.9544671464568151, 0.0, 0.0, 0.0, 95.44202743808717]], 'compliance_tensor': [[6.5, -1.0, -2.9, 0.0, 0.0, 0.0], [-1.0, 6.5, -2.9, 0.0, 0.0, -0.0], [-2.9, -2.9, 14.4, 0.0, 0.0, -0.0], [0.0, 0.0, 0.0, 30.0, 0.0, 0.0], [0.0, 0.0, 0.0, 0.0, 30.0, 0.0], [0.0, -0.0, -0.0, 0.0, 0.0, 10.5]], 'warnings': ['Contains a rare earth element'], 'nsites': 6}",0.0
164,mp-1068296,Fe(BW)2,"{'Fe': 1.0, 'B': 2.0, 'W': 2.0}",0.1330927120123987,14.159912947167678,,0.0
165,mp-1078098,UGa5Fe,"{'U': 1.0, 'Ga': 5.0, 'Fe': 1.0}",0.12920780732078288,8.686741527953115,,0.0
166,mp-1078746,Sr2FeH6,"{'Sr': 2.0, 'Fe': 1.0, 'H': 6.0}",0.21135309437449085,3.8065530241603693,,0.0
167,mp-1080817,NbFeB,"{'Nb': 1.0, 'Fe': 1.0, 'B': 1.0}",0.15486701114674212,7.90098452936334,,0.0
168,mp-1094148,Mn2FeGe5,"{'Mn': 2.0, 'Fe': 1.0, 'Ge': 5.0}",0.13027087707646842,7.923637452275875,,0.0
169,mp-11037,Lu(Al2Fe)4,"{'Lu': 1.0, 'Al': 8.0, 'Fe': 4.0}",0.13258640140367206,5.433305789524629,,0.0
170,mp-1104739,Ho(GaFe)6,"{'Ho': 1.0, 'Ga': 6.0, 'Fe': 6.0}",0.1698096133018834,8.265383133616504,,0.0
171,mp-1188509,Pr(FeSb3)4,"{'Pr': 1.0, 'Fe': 4.0, 'Sb': 12.0}",0.11351380834872452,7.8003097721064245,,0.0
172,mp-1189616,Ta3FeS6,"{'Ta': 3.0, 'Fe': 1.0, 'S': 6.0}",0.15943559066271806,7.858468423459065,,0.0
173,mp-1191755,Yb2Fe12P7,"{'Yb': 2.0, 'Fe': 12.0, 'P': 7.0}",0.18566196670825705,8.141541566928403,,0.0
174,mp-1192618,Nb4Fe4Si7,"{'Nb': 4.0, 'Fe': 4.0, 'Si': 7.0}",0.12219875350708409,6.627655259767347,,0.0
175,mp-1194174,Er9(FeGe)10,"{'Er': 9.0, 'Fe': 10.0, 'Ge': 10.0}",0.17185802073587697,9.22977164238953,,0.0
176,mp-1197438,Pr3Fe5O12,"{'Pr': 3.0, 'Fe': 5.0, 'O': 12.0}",0.48850674851767983,5.643520885190293,,0.0
177,mp-1199430,TiFeGe2,"{'Ti': 1.0, 'Fe': 1.0, 'Ge': 2.0}",0.1579187309422357,7.248802527108161,,0.0
178,mp-1205964,Ca2FeH6,"{'Ca': 2.0, 'Fe': 1.0, 'H': 6.0}",0.17464157101174765,2.744992021521871,,0.0
179,mp-12061,Lu(FeB)2,"{'Lu': 1.0, 'Fe': 2.0, 'B': 2.0}",0.17942564343113718,9.213369162974079,"{'G_Reuss': 33.0, 'G_VRH': 71.0, 'G_Voigt': 109.0, 'G_Voigt_Reuss_Hill': 71.0, 'K_Reuss': 147.0, 'K_VRH': 148.0, 'K_Voigt': 150.0, 'K_Voigt_Reuss_Hill': 148.0, 'elastic_anisotropy': 11.58, 'elastic_tensor': [[216.0, 199.0, 67.0, 0.0, 0.0, 0.0], [199.0, 216.0, 67.0, 0.0, 0.0, 0.0], [67.0, 67.0, 252.0, 0.0, 0.0, 0.0], [0.0, 0.0, 0.0, 128.0, 0.0, 0.0], [0.0, 0.0, 0.0, 0.0, 128.0, 0.0], [0.0, 0.0, 0.0, 0.0, 0.0, 170.0]], 'homogeneous_poisson': 0.29, 'poisson_ratio': 0.29, 'universal_anisotropy': 11.58, 'elastic_tensor_original': [[215.6629019485778, 199.2203020938574, 70.23592401503132, 0.0, -7.600029607104458e-06, 0.0], [199.22030209385744, 215.66290194857777, 70.23592401503133, -7.600029611498217e-06, 0.0, 0.0], [63.81217236495297, 63.81217236495297, 252.2034346133791, 0.0, 0.0, 0.0], [0.0, 0.0, 0.0, 127.77586956134316, 0.0, 0.0], [0.0, 0.0, 0.0, 0.0, 127.77586956134316, 0.0], [1.703070850881458, -1.703070850881466, 0.0, 1.1000048441393338e-06, -1.1000048447813805e-06, 170.299727755742]], 'compliance_tensor': [[31.7, -29.1, -0.7, -0.0, 0.0, -0.0], [-29.1, 31.7, -0.7, 0.0, -0.0, 0.0], [-0.7, -0.7, 4.3, 0.0, 0.0, -0.0], [-0.0, 0.0, 0.0, 7.8, -0.0, 0.0], [0.0, -0.0, 0.0, -0.0, 7.8, 0.0], [-0.0, 0.0, -0.0, 0.0, 0.0, 5.9]], 'warnings': ['Contains a rare earth element'], 'nsites': 5}",0.0
180,mp-1208084,Tm2Fe17C3,"{'Tm': 2.0, 'Fe': 17.0, 'C': 3.0}",0.20796997814005805,8.240251858925163,,0.0
181,mp-1209606,RbFeBr4,"{'Rb': 1.0, 'Fe': 1.0, 'Br': 4.0}",0.1391829029942085,3.2017938815335865,,0.0
182,mp-1209798,Pr(Al5Fe)2,"{'Pr': 1.0, 'Al': 10.0, 'Fe': 2.0}",0.10817674825892767,4.069147440268782,,0.0
183,mp-1209887,NbFeSi,"{'Nb': 1.0, 'Fe': 1.0, 'Si': 1.0}",0.1359727342350143,7.17561289092785,,0.0
184,mp-1209892,Nd(FeAs3)4,"{'Nd': 1.0, 'Fe': 4.0, 'As': 12.0}",0.11471562758510011,7.1931018013112435,,0.0
185,mp-1210082,Nd6Al5Fe9,"{'Nd': 6.0, 'Al': 5.0, 'Fe': 9.0}",0.21083595917894274,6.411157691353526,,0.0
186,mp-1210813,Lu3Fe2Si3,"{'Lu': 3.0, 'Fe': 2.0, 'Si': 3.0}",0.14340541044538954,8.681195467604576,,0.0
187,mp-1213056,Dy(Al5Fe)2,"{'Dy': 1.0, 'Al': 10.0, 'Fe': 2.0}",0.11918416561209384,4.461288409316547,,0.0
188,mp-1213069,Fe3Pb5F19,"{'Fe': 3.0, 'Pb': 5.0, 'F': 19.0}",0.15416262332101402,6.133704641719979,,0.0
189,mp-1219228,Sm(Al3Fe)3,"{'Sm': 1.0, 'Al': 9.0, 'Fe': 3.0}",0.13613663238096058,4.667849578517646,,0.0
190,mp-1219231,Sm2Fe4Co13,"{'Sm': 2.0, 'Fe': 4.0, 'Co': 13.0}",0.2027445741572671,8.579170896167115,,0.0
191,mp-1225092,Er(AlFe)6,"{'Er': 1.0, 'Al': 6.0, 'Fe': 6.0}",0.15311196861203244,6.057709452646004,,0.0
192,mp-1225357,DyAl7Fe5,"{'Dy': 1.0, 'Al': 7.0, 'Fe': 5.0}",0.14957408597044908,5.58295844398604,,0.0
193,mp-1225366,Dy2FeCo3,"{'Dy': 2.0, 'Fe': 1.0, 'Co': 3.0}",0.21698039833141555,9.84182244165631,,0.0
194,mp-1229249,Al79(Fe13Si9)2,"{'Al': 79.0, 'Fe': 26.0, 'Si': 18.0}",0.10215273658660655,3.8296249681384356,,0.0
195,mp-16334,Fe3PdN,"{'Fe': 3.0, 'Pd': 1.0, 'N': 1.0}",0.19676951228902068,8.274119158401659,"{'G_Reuss': 85.0, 'G_VRH': 85.0, 'G_Voigt': 86.0, 'G_Voigt_Reuss_Hill': 85.0, 'K_Reuss': 187.0, 'K_VRH': 187.0, 'K_Voigt': 187.0, 'K_Voigt_Reuss_Hill': 187.0, 'elastic_anisotropy': 0.07, 'elastic_tensor': [[319.0, 122.0, 122.0, 0.0, 0.0, 0.0], [122.0, 319.0, 122.0, 0.0, 0.0, 0.0], [122.0, 122.0, 319.0, 0.0, 0.0, 0.0], [0.0, 0.0, 0.0, 78.0, 0.0, 0.0], [0.0, 0.0, 0.0, 0.0, 78.0, 0.0], [0.0, 0.0, 0.0, 0.0, 0.0, 78.0]], 'homogeneous_poisson': 0.3, 'poisson_ratio': 0.3, 'universal_anisotropy': 0.07, 'elastic_tensor_original': [[318.93398937791284, 121.74507035066728, 121.74507035066728, 0.0, 0.0, 0.0], [121.7426489107971, 318.9343264861741, 121.7426489107971, 0.0, 0.0, 0.0], [121.74436923730268, 121.74436923730268, 318.9382441798542, 0.0, 0.0, 0.0], [-8.080010330159161e-06, 0.00016243354100591438, -0.00030881706148811155, 77.66861966594736, 0.0, 0.0], [0.0018621457140865767, 0.0021546427547097196, 0.001545261975616353, 0.0, 77.66924658341557, 0.0], [-0.0011073680824350085, -0.001218061557290218, -0.0005536340411535511, 0.0, 0.0, 77.66873329609264]], 'compliance_tensor': [[4.0, -1.1, -1.1, 0.0, 0.0, 0.0], [-1.1, 4.0, -1.1, 0.0, 0.0, -0.0], [-1.1, -1.1, 4.0, -0.0, 0.0, -0.0], [0.0, 0.0, -0.0, 12.9, 0.0, -0.0], [0.0, 0.0, 0.0, 0.0, 12.9, 0.0], [0.0, -0.0, -0.0, -0.0, 0.0, 12.9]], 'warnings': [], 'nsites': 5}",0.0
196,mp-16430,Pr(FeP3)4,"{'Pr': 1.0, 'Fe': 4.0, 'P': 12.0}",0.09929950194027129,5.1134208216762245,,0.0
197,mp-18706,Y5(FeTe)2,"{'Y': 5.0, 'Fe': 2.0, 'Te': 2.0}",0.20486388678075085,5.888896355591833,,0.0
198,mp-18820,Sr3Fe2O7,"{'O': 7.0, 'Fe': 2.0, 'Sr': 3.0}",0.5968300157918754,5.199059386724327,,0.0