,mp_id,Formula,Composition,IPF,Density,Elastic_Tensor,E_above_Hull
71,mp-760,FeSe2,"{'Fe': 1.0, 'Se': 2.0}",0.22594652933470255,7.0898572130344615,"{'G_Reuss': 89.0, 'G_VRH': 92.0, 'G_Voigt': 94.0, 'G_Voigt_Reuss_Hill': 92.0, 'K_Reuss': 118.0, 'K_VRH': 118.0, 'K_Voigt': 118.0, 'K_Voigt_Reuss_Hill': 118.0, 'elastic_anisotropy': 0.28, 'elastic_tensor': [[214.0, 42.0, 84.0, 0.0, 0.0, 0.0], [42.0, 283.0, 39.0, 0.0, 0.0, 0.0], [84.0, 39.0, 232.0, 0.0, 0.0, 0.0], [0.0, 0.0, 0.0, 70.0, 0.0, 0.0], [0.0, 0.0, 0.0, 0.0, 102.0, 0.0], [0.0, 0.0, 0.0, 0.0, 0.0, 111.0]], 'homogeneous_poisson': 0.19, 'poisson_ratio': 0.19, 'universal_anisotropy': 0.28, 'elastic_tensor_original': [[231.51726073125874, 84.10904737752311, 42.86689062862172, 0.0, 0.0, 0.0], [83.80677343384087, 214.32821076480036, 44.777577929116006, 0.0, 0.0, 0.0], [35.77615502953616, 38.70298935150437, 283.3912414099247, 0.0, 0.0, 0.0], [-4.2580053789351556e-05, 0.0001147134782515671, -0.00012208015422163687, 110.97076998866075, 0.0, 0.0], [-0.00012345007868709654, -2.8410018108766705e-05, -0.0001555900991732209, 0.0, 69.94494415627497, 0.0], [2.1203344380688422e-05, -0.0002365201232227765, -0.00012385673119433011, 0.0, 0.0, 102.19715109937968]], 'compliance_tensor': [[5.5, -0.5, -1.9, 0.0, 0.0, 0.0], [-0.5, 3.7, -0.4, 0.0, 0.0, 0.0], [-1.9, -0.4, 5.1, 0.0, 0.0, -0.0], [0.0, 0.0, 0.0, 14.3, 0.0, 0.0], [0.0, 0.0, 0.0, 0.0, 9.8, 0.0], [0.0, 0.0, -0.0, 0.0, 0.0, 9.0]], 'warnings': [], 'nsites': 6}",0.0
72,mp-778,Fe2P,"{'Fe': 2.0, 'P': 1.0}",0.1760389680764239,7.083597008639862,"{'G_Reuss': 87.0, 'G_VRH': 89.0, 'G_Voigt': 91.0, 'G_Voigt_Reuss_Hill': 89.0, 'K_Reuss': 216.0, 'K_VRH': 216.0, 'K_Voigt': 216.0, 'K_Voigt_Reuss_Hill': 216.0, 'elastic_anisotropy': 0.23, 'elastic_tensor': [[329.0, 138.0, 177.0, 0.0, 0.0, 0.0], [138.0, 329.0, 177.0, 0.0, 0.0, 0.0], [177.0, 177.0, 298.0, 0.0, 0.0, 0.0], [0.0, 0.0, 0.0, 102.0, 0.0, 0.0], [0.0, 0.0, 0.0, 0.0, 102.0, 0.0], [0.0, 0.0, 0.0, 0.0, 0.0, 95.0]], 'homogeneous_poisson': 0.32, 'poisson_ratio': 0.32, 'universal_anisotropy': 0.23, 'elastic_tensor_original': [[329.05152955889554, 137.3681182197298, 177.84344445135008, 0.0, 0.0, 0.0], [137.05709094914621, 329.35164820198156, 177.87605491906402, 0.0, 0.0, 0.0], [177.1158021011098, 177.1158167997495, 298.0536934176648, 0.0, 0.0, 0.0], [0.0005636074258703786, -0.00017936024160146105, 0.0004473272692355906, 102.28581485326423, 0.0, 0.0], [0.0008138600230353888, 0.0006722321147034406, 0.0004678129141003388, 0.0, 102.28665579157573, 0.0], [-3.8326695308860705e-05, -8.42667034891657e-06, 6.317337448455347e-05, 0.0, 0.0, 94.60468957270365]], 'compliance_tensor': [[4.6, -0.7, -2.3, -0.0, -0.0, 0.0], [-0.7, 4.6, -2.3, -0.0, -0.0, 0.0], [-2.3, -2.3, 6.1, 0.0, 0.0, -0.0], [-0.0, -0.0, 0.0, 9.8, 0.0, -0.0], [-0.0, -0.0, 0.0, 0.0, 9.8, 0.0], [0.0, 0.0, -0.0, 0.0, -0.0, 10.5]], 'warnings': [], 'nsites': 9}",0.0
73,mp-865212,Fe3Re,"{'Fe': 3.0, 'Re': 1.0}",0.20385700488606553,12.874922439317723,"{'G_Reuss': 176.0, 'G_VRH': 177.0, 'G_Voigt': 178.0, 'G_Voigt_Reuss_Hill': 177.0, 'K_Reuss': 310.0, 'K_VRH': 310.0, 'K_Voigt': 310.0, 'K_Voigt_Reuss_Hill': 310.0, 'elastic_anisotropy': 0.07, 'elastic_tensor': [[544.0, 214.0, 163.0, 0.0, 0.0, 0.0], [214.0, 544.0, 163.0, 0.0, 0.0, 0.0], [163.0, 163.0, 620.0, 0.0, 0.0, 0.0], [0.0, 0.0, 0.0, 168.0, 0.0, 0.0], [0.0, 0.0, 0.0, 0.0, 168.0, 0.0], [0.0, 0.0, 0.0, 0.0, 0.0, 165.0]], 'homogeneous_poisson': 0.26, 'poisson_ratio': 0.26, 'universal_anisotropy': 0.07, 'elastic_tensor_original': [[547.1210949168386, 211.91748893194108, 164.42335979098348, 0.0, 0.0, 0.0], [210.7442365740073, 546.1863808554521, 162.13154045364894, 0.0, 0.0, 0.0], [162.7385103185067, 162.73849599916161, 620.3831437301113, 0.0, 0.0, 0.0], [0.04702386573698835, -0.04942860841684705, -0.008322695941524488, 168.3289646933916, 0.0, 0.0], [-0.024969572519147703, -0.005046789941316927, -0.006664883128686092, 0.0, 168.31343959220666, 0.0], [0.20478748718274067, 0.05148931582997759, 0.1389787647035693, 0.0, 0.0, 161.75086470406026]], 'compliance_tensor': [[2.3, -0.8, -0.4, 0.0, -0.0, -0.0], [-0.8, 2.3, -0.4, -0.0, 0.0, -0.0], [-0.4, -0.4, 1.8, -0.0, 0.0, 0.0], [0.0, -0.0, -0.0, 5.9, -0.0, -0.0], [-0.0, 0.0, 0.0, -0.0, 5.9, 0.0], [-0.0, -0.0, 0.0, -0.0, 0.0, 6.1]], 'warnings': [], 'nsites': 8}",0.47753395833183276
74,mp-866134,VFe3,"{'V': 1.0, 'Fe': 3.0}",0.20810172516849768,7.73981484162752,"{'G_Reuss': 85.0, 'G_VRH': 90.0, 'G_Voigt': 95.0, 'G_Voigt_Reuss_Hill': 90.0, 'K_Reuss': 193.0, 'K_VRH': 193.0, 'K_Voigt': 193.0, 'K_Voigt_Reuss_Hill': 193.0, 'elastic_anisotropy': 0.55, 'elastic_tensor': [[274.0, 153.0, 153.0, 0.0, 0.0, 0.0], [153.0, 274.0, 153.0, 0.0, 0.0, 0.0], [153.0, 153.0, 274.0, 0.0, 0.0, 0.0], [0.0, 0.0, 0.0, 118.0, 0.0, 0.0], [0.0, 0.0, 0.0, 0.0, 118.0, 0.0], [0.0, 0.0, 0.0, 0.0, 0.0, 118.0]], 'homogeneous_poisson': 0.3, 'poisson_ratio': 0.3, 'universal_anisotropy': 0.55, 'elastic_tensor_original': [[274.28750904442376, 153.08084488534678, 153.0809519092528, 0.0, 0.0, 0.0], [153.079600590651, 274.2946678437807, 153.07965409261996, 0.0, 0.0, 0.0], [153.10235666731916, 153.10230314528167, 274.3083253205252, 0.0, 0.0, 0.0], [9.265094641798087e-05, -6.476814325741433e-05, -0.00021905578691572885, 117.58526296869411, 0.0, 0.0], [-5.142797616997937e-06, 9.217256666310796e-06, 6.440188816399248e-07, 0.0, 117.58680916766887, 0.0], [0.00013133857104199924, 0.00010525515615511208, 0.00010322516096871334, 0.0, 0.0, 117.58642540324394]], 'compliance_tensor': [[6.1, -2.2, -2.2, -0.0, -0.0, 0.0], [-2.2, 6.1, -2.2, 0.0, 0.0, 0.0], [-2.2, -2.2, 6.1, 0.0, -0.0, -0.0], [-0.0, 0.0, 0.0, 8.5, 0.0, -0.0], [-0.0, 0.0, -0.0, 0.0, 8.5, 0.0], [0.0, 0.0, -0.0, -0.0, 0.0, 8.5]], 'warnings': [], 'nsites': 4}",0.0
75,mp-871,FeSi,"{'Fe': 1.0, 'Si': 1.0}",0.14791894463886804,6.333879896320733,"{'G_Reuss': 138.0, 'G_VRH': 139.0, 'G_Voigt': 139.0, 'G_Voigt_Reuss_Hill': 139.0, 'K_Reuss': 211.0, 'K_VRH': 211.0, 'K_Voigt': 211.0, 'K_Voigt_Reuss_Hill': 211.0, 'elastic_anisotropy': 0.06, 'elastic_tensor': [[374.0, 130.0, 130.0, 0.0, 0.0, 0.0], [130.0, 374.0, 130.0, 0.0, 0.0, 0.0], [130.0, 130.0, 374.0, 0.0, 0.0, 0.0], [0.0, 0.0, 0.0, 151.0, 0.0, 0.0], [0.0, 0.0, 0.0, 0.0, 151.0, 0.0], [0.0, 0.0, 0.0, 0.0, 0.0, 151.0]], 'homogeneous_poisson': 0.23, 'poisson_ratio': 0.23, 'universal_anisotropy': 0.06, 'elastic_tensor_original': [[374.0318131987595, 130.22784127585282, 130.08827334173085, 0.0, 0.0, 0.0], [130.08778248359056, 374.0316839398107, 130.23102457894572, 0.0, 0.0, 0.0], [130.22662333753374, 130.08620420273397, 374.031541581044, 0.0, 0.0, 0.0], [-0.00010602771982476949, -6.864075515985807e-05, -0.00041373407653696125, 151.17981716859555, 0.0, 0.0], [-0.00022231975041067092, -0.0002785866949109195, -0.00029035309774362746, 0.0, 150.74726827977045, 0.0], [5.3742887036584906e-05, 0.0003155303731857165, 0.00031537047708998, 0.0, 0.0, 151.17997129518486]], 'compliance_tensor': [[3.3, -0.8, -0.8, 0.0, 0.0, 0.0], [-0.8, 3.3, -0.8, 0.0, 0.0, 0.0], [-0.8, -0.8, 3.3, 0.0, 0.0, 0.0], [0.0, 0.0, 0.0, 6.6, 0.0, 0.0], [0.0, 0.0, 0.0, 0.0, 6.6, 0.0], [0.0, 0.0, 0.0, 0.0, 0.0, 6.6]], 'warnings': [], 'nsites': 8}",0.0
76,mp-971669,FeSb3,"{'Fe': 1.0, 'Sb': 3.0}",0.10119575205206091,7.235385105312516,"{'G_Reuss': 42.0, 'G_VRH': 44.0, 'G_Voigt': 47.0, 'G_Voigt_Reuss_Hill': 44.0, 'K_Reuss': 82.0, 'K_VRH': 82.0, 'K_Voigt': 82.0, 'K_Voigt_Reuss_Hill': 82.0, 'elastic_anisotropy': 0.56, 'elastic_tensor': [[170.0, 38.0, 38.0, 0.0, 0.0, 0.0], [38.0, 170.0, 38.0, 0.0, 0.0, 0.0], [38.0, 38.0, 170.0, 0.0, 0.0, 0.0], [0.0, 0.0, 0.0, 34.0, 0.0, 0.0], [0.0, 0.0, 0.0, 0.0, 34.0, 0.0], [0.0, 0.0, 0.0, 0.0, 0.0, 34.0]], 'homogeneous_poisson': 0.27, 'poisson_ratio': 0.27, 'universal_anisotropy': 0.56, 'elastic_tensor_original': [[170.44262245030245, 38.10136310354247, 37.88025363235682, 0.0, 0.0, 0.0], [37.89587455572437, 170.46094015131027, 38.11686077780072, 0.0, 0.0, 0.0], [37.25592695826897, 37.07039700381177, 169.14584587074603, 0.0, 0.0, 0.0], [-0.017509132181255438, -0.018298511678477198, -0.01827633502593543, 33.74255124171712, 0.0, 0.0], [-4.3453305656998415e-05, 0.0010488926652629151, -0.001231039215915492, 0.0, 33.83913264020161, 0.0], [-0.005416299883533932, -0.005449943195438941, -0.0053934265647688304, 0.0, 0.0, 33.743478074460135]], 'compliance_tensor': [[6.4, -1.2, -1.2, 0.0, -0.0, -0.0], [-1.2, 6.4, -1.2, -0.0, 0.0, -0.0], [-1.2, -1.2, 6.4, -0.0, -0.0, 0.0], [0.0, -0.0, -0.0, 29.6, 0.0, 0.0], [-0.0, 0.0, -0.0, 0.0, 29.6, 0.0], [-0.0, -0.0, 0.0, 0.0, 0.0, 29.6]], 'warnings': [], 'nsites': 16}",0.0
77,mp-973908,PaFe3,"{'Pa': 1.0, 'Fe': 3.0}",0.21887085243748508,11.591020094230885,,0.0
78,mp-983590,Be3Fe,"{'Be': 3.0, 'Fe': 1.0}",0.15205066659283703,4.042916437987318,"{'G_Reuss': 61.0, 'G_VRH': 82.0, 'G_Voigt': 103.0, 'G_Voigt_Reuss_Hill': 82.0, 'K_Reuss': 155.0, 'K_VRH': 155.0, 'K_Voigt': 155.0, 'K_Voigt_Reuss_Hill': 155.0, 'elastic_anisotropy': 3.48, 'elastic_tensor': [[197.0, 133.0, 133.0, 0.0, 0.0, 0.0], [133.0, 197.0, 133.0, 0.0, 0.0, 0.0], [133.0, 133.0, 197.0, 0.0, 0.0, 0.0], [0.0, 0.0, 0.0, 150.0, 0.0, 0.0], [0.0, 0.0, 0.0, 0.0, 150.0, 0.0], [0.0, 0.0, 0.0, 0.0, 0.0, 150.0]], 'homogeneous_poisson': 0.28, 'poisson_ratio': 0.28, 'universal_anisotropy': 3.48, 'elastic_tensor_original': [[197.41822508333595, 133.35990664740987, 133.35949583553386, -0.00024640712328350924, 0.00010160293719807032, -0.00020320587439614065], [133.4693850692341, 197.45999928046422, 133.46864504967613, -0.000304808055787764, 8.220217252544027e-05, -0.00020320537052517595], [133.32807237183468, 133.32774376406616, 197.2796796339751, -0.0003046072011340263, 0.00010160240195409411, -0.00016420388189825053], [0.25326819181350846, 0.3753799207886979, -0.6227049485900414, 149.89232524187938, -9.277096672933743e-05, 4.665450008032203e-05], [0.0739249845988263, -0.12187617809699595, 0.07205758918917848, -9.26517484890856e-05, 150.15303578768396, -0.00013899904189514933], [1.5516995288494806, -1.4511112161224462, -0.13140390796139576, 4.767693678531457e-05, -0.00013905917493956666, 150.13329504868167]], 'compliance_tensor': [[11.1, -4.5, -4.5, -0.0, -0.0, 0.0], [-4.5, 11.1, -4.5, 0.0, 0.0, -0.0], [-4.5, -4.5, 11.1, -0.0, 0.0, -0.0], [-0.0, 0.0, -0.0, 6.7, 0.0, -0.0], [-0.0, 0.0, 0.0, 0.0, 6.7, 0.0], [0.0, -0.0, -0.0, -0.0, 0.0, 6.7]], 'warnings': [], 'nsites': 4}",0.0
79,mp-1018725,HoFeSi,"{'Ho': 1.0, 'Fe': 1.0, 'Si': 1.0}",0.152978948933995,7.921780119084059,"{'G_Reuss': 53.0, 'G_VRH': 57.0, 'G_Voigt': 61.0, 'G_Voigt_Reuss_Hill': 57.0, 'K_Reuss': 88.0, 'K_VRH': 92.0, 'K_Voigt': 95.0, 'K_Voigt_Reuss_Hill': 92.0, 'elastic_anisotropy': 0.87, 'elastic_tensor': [[199.0, 57.0, 58.0, 0.0, 0.0, 0.0], [57.0, 199.0, 58.0, 0.0, 0.0, 0.0], [58.0, 58.0, 111.0, 0.0, 0.0, 0.0], [0.0, 0.0, 0.0, 45.0, 0.0, 0.0], [0.0, 0.0, 0.0, 0.0, 45.0, 0.0], [0.0, 0.0, 0.0, 0.0, 0.0, 105.0]], 'homogeneous_poisson': 0.24, 'poisson_ratio': 0.24, 'universal_anisotropy': 0.87, 'elastic_tensor_original': [[199.31621056208374, 57.22563756034221, 50.08116990952567, 0.0, 0.0, 0.0], [57.22563756034221, 199.31621056208374, 50.08116990952566, 0.0, 0.0, 0.0], [65.23472785718226, 65.23472785718226, 111.02202374855435, 0.0, 0.0, 0.0], [0.0, 0.0, 0.0, 44.8775134793393, 0.0, 0.0], [0.0, 0.0, 0.0, 0.0, 44.8775134793393, 0.0], [1.0474432537533143, -1.047443253753316, 0.0, 0.0, 0.0, 104.73820223581355]], 'compliance_tensor': [[6.1, -1.0, -2.6, 0.0, 0.0, 0.0], [-1.0, 6.1, -2.6, 0.0, 0.0, 0.0], [-2.6, -2.6, 11.8, 0.0, 0.0, 0.0], [0.0, 0.0, 0.0, 22.3, 0.0, 0.0], [0.0, 0.0, 0.0, 0.0, 22.3, 0.0], [0.0, 0.0, 0.0, 0.0, 0.0, 9.5]], 'warnings': ['Contains a rare earth element'], 'nsites': 6}",0.0
80,mp-1069147,PrFeGe3,"{'Pr': 1.0, 'Fe': 1.0, 'Ge': 3.0}",0.14152221287476757,7.315424043955533,,0.0
81,mp-1079399,V3Fe,"{'V': 3.0, 'Fe': 1.0}",0.16921584699283396,6.896938291828383,,0.0
82,mp-1079968,UGaFe,"{'U': 1.0, 'Ga': 1.0, 'Fe': 1.0}",0.17253476404267673,12.235552350108089,,0.0
83,mp-1101894,FeAsSe,"{'Fe': 1.0, 'As': 1.0, 'Se': 1.0}",0.17013895889268024,7.263064798296119,,0.0
84,mp-1102314,HfFeSi,"{'Hf': 1.0, 'Fe': 1.0, 'Si': 1.0}",0.1328526138365181,9.934700706719608,,0.0
85,mp-1105605,Tb7FeI12,"{'Tb': 7.0, 'Fe': 1.0, 'I': 12.0}",0.175127626103205,5.8362360517553435,,0.0
86,mp-1106297,Ho4Ga12Fe,"{'Ho': 4.0, 'Ga': 12.0, 'Fe': 1.0}",0.1389244218392223,8.220097462735414,,0.0
87,mp-1180150,Nb2FeO6,"{'Nb': 2.0, 'Fe': 1.0, 'O': 6.0}",0.49442480785382514,4.822082892908586,,0.0
88,mp-1183416,BeCrFe2,"{'Be': 1.0, 'Cr': 1.0, 'Fe': 2.0}",0.2390030124046669,7.192083838310835,,0.0
89,mp-1187225,TaFe2Ge,"{'Ta': 1.0, 'Fe': 2.0, 'Ge': 1.0}",0.1808419565472032,11.65402741504362,,0.0
90,mp-1192350,NbFe2,"{'Nb': 1.0, 'Fe': 2.0}",0.194334309910027,8.803120331161525,,0.0
91,mp-1195892,RbFe2F6,"{'Rb': 1.0, 'Fe': 2.0, 'F': 6.0}",0.23727216963986322,3.697243722699047,,0.0
92,mp-1196071,Ba2Fe2O5,"{'Ba': 2.0, 'Fe': 2.0, 'O': 5.0}",0.5254253597047569,5.439626835234795,,0.0
93,mp-1196608,Nd6TlFe13,"{'Nd': 6.0, 'Tl': 1.0, 'Fe': 13.0}",0.25084728790567906,7.79819119101604,,0.70535849999942
94,mp-1196684,Tm2Fe3Si5,"{'Tm': 2.0, 'Fe': 3.0, 'Si': 5.0}",0.15320863678538246,7.4404358499654455,,0.0
95,mp-1197850,YbFe5P3,"{'Yb': 1.0, 'Fe': 5.0, 'P': 3.0}",0.1842476347877023,8.175557013294883,,0.0
96,mp-1198327,Gd2Fe14B,"{'Gd': 2.0, 'Fe': 14.0, 'B': 1.0}",0.20626268858196245,8.06318835736832,,0.0
97,mp-1200054,V4Fe2O13,"{'V': 4.0, 'Fe': 2.0, 'O': 13.0}",0.4104164916603535,2.9242038691544954,,0.0
98,mp-1201558,ZrFeGe2,"{'Zr': 1.0, 'Fe': 1.0, 'Ge': 2.0}",0.14432502414695836,7.712726253256606,,0.0
99,mp-1201769,Sm6InFe13,"{'Sm': 6.0, 'In': 1.0, 'Fe': 13.0}",0.22676463444927672,7.825246634482397,,0.0
100,mp-1203434,Na2Fe2F7,"{'Na': 2.0, 'Fe': 2.0, 'F': 7.0}",0.19163204921533594,3.2406082912649166,,0.0
101,mp-1203443,HfFeGe2,"{'Hf': 1.0, 'Fe': 1.0, 'Ge': 2.0}",0.1472672844242673,10.32353681045458,,0.0
102,mp-1205381,Cs4FeO3,"{'Cs': 4.0, 'Fe': 1.0, 'O': 3.0}",0.5641516047514802,4.684220808605667,,0.0
103,mp-1206135,Hf6FeSb2,"{'Hf': 6.0, 'Fe': 1.0, 'Sb': 2.0}",0.12325864343502585,12.290435704369331,,0.0
104,mp-1206935,Tm6FeBi2,"{'Tm': 6.0, 'Fe': 1.0, 'Bi': 2.0}",0.18474465813683077,10.166883151739484,,0.0
105,mp-1208403,TiFeGe,"{'Ti': 1.0, 'Fe': 1.0, 'Ge': 1.0}",0.17042650933160952,7.0340642271369935,,0.0
106,mp-1208781,Sm11(Fe2C3)6,"{'Sm': 11.0, 'Fe': 12.0, 'C': 18.0}",0.21479727068135337,7.632511949221439,,0.0
107,mp-1212423,Ho12In3Fe2,"{'Ho': 12.0, 'In': 3.0, 'Fe': 2.0}",0.15806110581816935,8.836737016378398,,0.0
108,mp-1212895,Er12In3Fe2,"{'Er': 12.0, 'In': 3.0, 'Fe': 2.0}",0.16145577536552355,9.360264240001325,,0.0
109,mp-1215479,Zr2V3Fe,"{'Zr': 2.0, 'V': 3.0, 'Fe': 1.0}",0.14403180209157843,6.763800851402284,,0.0
110,mp-1216328,UAl7Fe5,"{'U': 1.0, 'Al': 7.0, 'Fe': 5.0}",0.14240733600840272,6.404163209183035,,0.0
111,mp-1217840,Tb(AlFe)6,"{'Tb': 1.0, 'Al': 6.0, 'Fe': 6.0}",0.14847602480385538,5.931793457350487,,0.0
112,mp-1221619,MnFeSi2,"{'Mn': 1.0, 'Fe': 1.0, 'Si': 2.0}",0.11207377834707519,6.145428214202455,,0.0
113,mp-1222351,LiFeF6,"{'Li': 1.0, 'Fe': 1.0, 'F': 6.0}",0.1476421796626139,2.9981502384177743,,0.0
114,mp-1225058,Er2AlFe3,"{'Er': 2.0, 'Al': 1.0, 'Fe': 3.0}",0.18696205961450196,9.010337127992576,,0.0
115,mp-1225059,FeCl4,"{'Fe': 1.0, 'Cl': 4.0}",0.08396076673345713,2.612963951750102,,0.0
116,mp-1225604,FeNi35S32,"{'Fe': 1.0, 'Ni': 35.0, 'S': 32.0}",0.15830750564647297,5.376146137547881,,0.0
117,mp-1247465,Ba3Fe3N5,"{'Ba': 3.0, 'Fe': 3.0, 'N': 5.0}",0.30262228875059954,5.979119189258872,,0.0
118,mp-12956,Yb(FeP3)4,"{'Yb': 1.0, 'Fe': 4.0, 'P': 12.0}",0.10222130167586677,5.414620990655354,"{'G_Reuss': 108.0, 'G_VRH': 108.0, 'G_Voigt': 108.0, 'G_Voigt_Reuss_Hill': 108.0, 'K_Reuss': 150.0, 'K_VRH': 150.0, 'K_Voigt': 150.0, 'K_Voigt_Reuss_Hill': 150.0, 'elastic_anisotropy': 0.0, 'elastic_tensor': [[299.0, 76.0, 76.0, 0.0, 0.0, 0.0], [76.0, 299.0, 76.0, 0.0, 0.0, 0.0], [76.0, 76.0, 299.0, 0.0, 0.0, 0.0], [0.0, 0.0, 0.0, 106.0, 0.0, 0.0], [0.0, 0.0, 0.0, 0.0, 106.0, 0.0], [0.0, 0.0, 0.0, 0.0, 0.0, 106.0]], 'homogeneous_poisson': 0.21, 'poisson_ratio': 0.21, 'universal_anisotropy': 0.0, 'elastic_tensor_original': [[299.4527573109938, 75.8433986426768, 75.69652475046455, 0.0007851870176562765, 0.001692686693609485, 0.0035474062384157857], [76.94741704846471, 299.826348763906, 76.90837126906378, 0.0, 0.0, 0.0], [75.01055103805771, 74.88778903208815, 298.959538045606, 0.0, 0.0, 0.0], [1.3226678271462504e-05, 1.3960012247393483e-05, 2.2256686192150086e-05, 106.24033189810261, 0.0, 0.0], [0.0002530568886741572, 0.00023529687309263082, 0.0002609968956394344, 0.0, 106.34326345840459, 0.0], [-0.07718613438215376, -0.08424115390486486, -0.0767910107021771, 0.0, 0.0, 106.24108242876109]], 'compliance_tensor': [[3.7, -0.8, -0.8, 0.0, -0.0, -0.0], [-0.8, 3.7, -0.8, -0.0, 0.0, 0.0], [-0.8, -0.8, 3.7, -0.0, -0.0, -0.0], [0.0, -0.0, -0.0, 9.4, -0.0, 0.0], [-0.0, 0.0, -0.0, -0.0, 9.4, -0.0], [-0.0, 0.0, -0.0, 0.0, -0.0, 9.4]], 'warnings': ['Contains a rare earth element'], 'nsites': 17}",0.0
119,mp-1308212,Li2FeO3,"{'Li': 2.0, 'Fe': 1.0, 'O': 3.0}",0.6297577807158584,3.6379995423806135,,0.7919124999995475
120,mp-15026,Nd(FeSb3)4,"{'Nd': 1.0, 'Fe': 4.0, 'Sb': 12.0}",0.12357707688056933,7.845072421119854,,0.0
121,mp-1522,FeS2,"{'Fe': 1.0, 'S': 2.0}",0.20398386201178567,4.89365155220211,"{'G_Reuss': 121.0, 'G_VRH': 125.0, 'G_Voigt': 128.0, 'G_Voigt_Reuss_Hill': 125.0, 'K_Reuss': 150.0, 'K_VRH': 150.0, 'K_Voigt': 150.0, 'K_Voigt_Reuss_Hill': 150.0, 'elastic_anisotropy': 0.3, 'elastic_tensor': [[283.0, 36.0, 107.0, 0.0, 0.0, 0.0], [36.0, 394.0, 44.0, 0.0, 0.0, 0.0], [107.0, 44.0, 300.0, 0.0, 0.0, 0.0], [0.0, 0.0, 0.0, 96.0, 0.0, 0.0], [0.0, 0.0, 0.0, 0.0, 144.0, 0.0], [0.0, 0.0, 0.0, 0.0, 0.0, 139.0]], 'homogeneous_poisson': 0.17, 'poisson_ratio': 0.17, 'universal_anisotropy': 0.3, 'elastic_tensor_original': [[299.6487599835139, 106.5181955142057, 43.38909665996912, 0.0, 0.0, 0.0], [106.76985302960615, 283.0263666293769, 36.14424149510198, 0.0, 0.0, 0.0], [44.83865143558366, 36.2963232697025, 394.1689358195353, 0.0, 0.0, 0.0], [1.6249618612365363e-05, 0.00014678290610851312, -3.611361555334789e-05, 139.45896889991005, 0.0, 0.0], [-4.426657944047617e-06, -2.8706925083433033e-05, 2.6003114761310276e-05, 0.0, 95.97260008679669, 0.0], [0.00012634025273356057, 4.185023581758082e-05, 0.00010917684475444826, 0.0, 0.0, 143.6192180607897]], 'compliance_tensor': [[4.1, -0.2, -1.4, 0.0, 0.0, -0.0], [-0.2, 2.6, -0.3, 0.0, 0.0, -0.0], [-1.4, -0.3, 3.9, 0.0, 0.0, 0.0], [0.0, 0.0, 0.0, 10.4, 0.0, 0.0], [0.0, 0.0, 0.0, 0.0, 7.0, 0.0], [-0.0, -0.0, 0.0, 0.0, 0.0, 7.2]], 'warnings': [], 'nsites': 6}",0.0
122,mp-1575878,Ca3Fe2O7,"{'Ca': 3.0, 'Fe': 2.0, 'O': 7.0}",0.5753968794421263,3.984916484817551,,0.0