,mp_id,Formula,Composition,IPF,Density,Elastic_Tensor,E_above_Hull
791,mp-643264,BaMg2FeH8,"{'Ba': 1.0, 'Mg': 2.0, 'Fe': 1.0, 'H': 8.0}",0.17379314326416934,3.310495649052089,"{'G_Reuss': 39.0, 'G_VRH': 39.0, 'G_Voigt': 40.0, 'G_Voigt_Reuss_Hill': 39.0, 'K_Reuss': 53.0, 'K_VRH': 54.0, 'K_Voigt': 54.0, 'K_Voigt_Reuss_Hill': 54.0, 'elastic_anisotropy': 0.18, 'elastic_tensor': [[120.0, 29.0, 24.0, 5.0, 0.0, 0.0], [29.0, 120.0, 24.0, -5.0, 0.0, 0.0], [24.0, 24.0, 93.0, 0.0, 0.0, 0.0], [5.0, -5.0, 0.0, 34.0, 0.0, 0.0], [0.0, 0.0, 0.0, 0.0, 34.0, 5.0], [0.0, 0.0, 0.0, 0.0, 5.0, 46.0]], 'homogeneous_poisson': 0.21, 'poisson_ratio': 0.21, 'universal_anisotropy': 0.18, 'elastic_tensor_original': [[114.9776018803084, 24.15364315332212, 21.67917715020663, -4.565302395529653, 0.0, 0.0], [33.3118793368034, 127.28798191408326, 27.90973779559175, 4.950211870843657, 0.0, 0.0], [23.55171885981349, 23.551717167687002, 92.79538774706656, 0.0, 0.0, 0.0], [-6.394731603451596, 2.571230663170347, -0.4560399621236597, 33.72254798777173, 0.0, 0.0], [0.0, 0.0, 0.0, 0.0, 34.664565061692294, -4.620717721694483], [0.0, 0.0, 0.0, 0.0, -4.802933906792907, 44.88225308242566]], 'compliance_tensor': [[9.2, -1.9, -1.9, -1.5, -0.0, -0.0], [-1.9, 9.2, -1.9, 1.5, 0.0, -0.0], [-1.9, -1.9, 11.8, 0.0, -0.0, 0.0], [-1.5, 1.5, 0.0, 29.7, -0.0, 0.0], [-0.0, 0.0, -0.0, -0.0, 29.7, -3.0], [-0.0, -0.0, 0.0, 0.0, -3.0, 22.3]], 'warnings': [], 'nsites': 12}",0.0
792,mp-645796,TlFe(MoO4)2,"{'Tl': 1.0, 'Fe': 1.0, 'Mo': 2.0, 'O': 8.0}",0.4258854913420527,4.916784104146243,,0.0
793,mp-647363,La21Fe8Bi7C12,"{'La': 21.0, 'Fe': 8.0, 'Bi': 7.0, 'C': 12.0}",0.17488835175171133,7.356177933923451,,0.0
794,mp-6563,TbAl9(Fe2Si3)2,"{'Tb': 1.0, 'Al': 9.0, 'Fe': 4.0, 'Si': 6.0}",0.10450641327817592,4.607342525267075,,0.0
795,mp-6685,Cr4FeCuS8,"{'Cr': 4.0, 'Fe': 1.0, 'Cu': 1.0, 'S': 8.0}",0.17111333689613595,3.982656718099192,,0.0
796,mp-755721,Li4Cr3FeO8,"{'Li': 4.0, 'Cr': 3.0, 'Fe': 1.0, 'O': 8.0}",0.6232807634074994,4.122778918988904,,0.0
797,mp-8923,Sr2LiFe2N3,"{'Sr': 2.0, 'Li': 1.0, 'Fe': 2.0, 'N': 3.0}",0.2544604990264681,4.629939237487682,,0.0
798,mvc-10314,CaHo(FeO3)2,"{'Ca': 1.0, 'Ho': 1.0, 'Fe': 2.0, 'O': 6.0}",0.5859934476553061,6.048178909352451,,0.0
799,mp-1025290,La2Fe2Si2C,"{'La': 2.0, 'Fe': 2.0, 'Si': 2.0, 'C': 1.0}",0.16221430407309015,6.1306559028555645,,0.0
800,mp-1105546,LaFe4(CuO4)3,"{'La': 1.0, 'Fe': 4.0, 'Cu': 3.0, 'O': 12.0}",0.5886347411930238,5.8435277042550675,,0.0
801,mp-1173282,Sr2FeMoO6,"{'Sr': 2.0, 'Fe': 1.0, 'Mo': 1.0, 'O': 6.0}",0.578022193063183,5.480338199939721,,0.21429091666647082
802,mp-1178085,Li11Fe5(OF11)2,"{'Li': 11.0, 'Fe': 5.0, 'O': 2.0, 'F': 22.0}",0.2209808658292706,3.091466212912157,,0.0
803,mp-1201692,LiFe(Se2O5)2,"{'Li': 1.0, 'Fe': 1.0, 'Se': 4.0, 'O': 10.0}",0.4822906133073275,4.036131823346194,,0.0
804,mp-1207148,HoFe2SiC,"{'Ho': 1.0, 'Fe': 2.0, 'Si': 1.0, 'C': 1.0}",0.16270701324933717,8.005872193465128,,0.0
805,mp-1208946,Sr2FeIrO6,"{'Sr': 2.0, 'Fe': 1.0, 'Ir': 1.0, 'O': 6.0}",0.5875706360254419,6.845647727142323,,0.0
806,mp-1214121,Ca2NbFeO6,"{'Ca': 2.0, 'Nb': 1.0, 'Fe': 1.0, 'O': 6.0}",0.558800033373427,4.46034519267847,,0.0
807,mp-1215882,Yb2FeSbO7,"{'Yb': 2.0, 'Fe': 1.0, 'Sb': 1.0, 'O': 7.0}",0.5552340568979935,7.886518640693542,,0.0
808,mp-1216151,Zn3Fe9(PO4)8,"{'Zn': 3.0, 'Fe': 9.0, 'P': 8.0, 'O': 32.0}",0.48843549004458353,3.8707862887548274,,0.0
809,mp-1218069,SrPr(FeO3)2,"{'Sr': 1.0, 'Pr': 1.0, 'Fe': 2.0, 'O': 6.0}",0.5766492620861973,5.95956672926501,,0.0
810,mp-1219445,Sc4TaFe19P12,"{'Sc': 4.0, 'Ta': 1.0, 'Fe': 19.0, 'P': 12.0}",0.16573377910022,6.894135543191823,,0.0
811,mp-1220524,Nd2FeCo3Si4,"{'Nd': 2.0, 'Fe': 1.0, 'Co': 3.0, 'Si': 4.0}",0.18093921518713876,6.71154487450482,,0.0
812,mp-1220715,Nb3Fe(BiO3)6,"{'Nb': 3.0, 'Fe': 1.0, 'Bi': 6.0, 'O': 18.0}",0.47610778163732376,7.882002434052928,,0.0
813,mp-1220949,Na7Fe4P9O32,"{'Na': 7.0, 'Fe': 4.0, 'P': 9.0, 'O': 32.0}",0.4994982058581831,2.948480637534849,,0.20274051282243022
814,mp-1220955,NaSr2(FeAs)6,"{'Na': 1.0, 'Sr': 2.0, 'Fe': 6.0, 'As': 6.0}",0.1779723717740838,5.976056315938602,,0.0
815,mp-1221376,Na2MnFeF7,"{'Na': 2.0, 'Mn': 1.0, 'Fe': 1.0, 'F': 7.0}",0.17603306774696864,3.1267876175936036,,0.0
816,mp-1222048,MgFe(CO3)2,"{'Mg': 1.0, 'Fe': 1.0, 'C': 2.0, 'O': 6.0}",0.5604179012954794,3.340623818110106,,0.0
817,mp-1225089,GaFe2Co4Si,"{'Ga': 1.0, 'Fe': 2.0, 'Co': 4.0, 'Si': 1.0}",0.1671413303902158,8.082652557013121,,0.0
818,mp-1279869,Ba2FeMoO6,"{'Ba': 2.0, 'Fe': 1.0, 'Mo': 1.0, 'O': 6.0}",0.5995501879661725,6.302050778823195,,0.8374230000001148
819,mp-1280011,Ba2FeWO6,"{'Ba': 2.0, 'Fe': 1.0, 'W': 1.0, 'O': 6.0}",0.5794615448606935,7.121057411041471,,0.34759950000129436
820,mp-18968,Li2FeSiO4,"{'Li': 2.0, 'Fe': 1.0, 'Si': 1.0, 'O': 4.0}",0.49937863556590956,3.129272616958105,"{'G_Reuss': 44.0, 'G_VRH': 44.0, 'G_Voigt': 45.0, 'G_Voigt_Reuss_Hill': 44.0, 'K_Reuss': 85.0, 'K_VRH': 88.0, 'K_Voigt': 92.0, 'K_Voigt_Reuss_Hill': 88.0, 'elastic_anisotropy': 0.28, 'elastic_tensor': [[130.0, 66.0, 42.0, 0.0, 0.0, 0.0], [66.0, 214.0, 64.0, 0.0, 0.0, 0.0], [42.0, 64.0, 138.0, 0.0, 0.0, 0.0], [0.0, 0.0, 0.0, 45.0, 0.0, 0.0], [0.0, 0.0, 0.0, 0.0, 35.0, 0.0], [0.0, 0.0, 0.0, 0.0, 0.0, 43.0]], 'homogeneous_poisson': 0.28, 'poisson_ratio': 0.28, 'universal_anisotropy': 0.28, 'elastic_tensor_original': [[137.9673678750009, 42.376009099518214, 64.49247724192918, 0.0, 0.0, 0.0], [40.96930173597581, 129.76860687328193, 66.03138005098234, 0.0, 0.0, 0.0], [63.59220199030403, 66.15739396451957, 214.2376931274834, 0.0, 0.0, 0.0], [0.6240756443152237, 0.32740390715597056, 0.16121450082773256, 43.42266025483225, 0.0, 0.0], [-0.00046678102547911425, 0.0008288518829335144, -0.0002291370494051478, 0.0, 44.80800204613484, 0.0], [-0.017577507708484912, -0.007301353823146482, 0.009817572971716986, 0.0, 0.0, 34.97952574443342]], 'compliance_tensor': [[9.5, -2.4, -1.8, 0.0, 0.0, 0.0], [-2.4, 6.0, -2.1, 0.0, 0.0, 0.0], [-1.8, -2.1, 8.7, 0.0, 0.0, 0.0], [0.0, 0.0, 0.0, 22.3, 0.0, 0.0], [0.0, 0.0, 0.0, 0.0, 28.6, 0.0], [0.0, 0.0, 0.0, 0.0, 0.0, 23.0]], 'warnings': [], 'nsites': 32}",0.0
821,mp-26184,LiFe2P5O16,"{'Li': 1.0, 'Fe': 2.0, 'P': 5.0, 'O': 16.0}",0.4495499458243467,2.7110786681485837,,0.24847385416482126
822,mp-510641,LiFeAsO4,"{'Li': 1.0, 'Fe': 1.0, 'As': 1.0, 'O': 4.0}",0.4924435890153241,4.085704775081883,,0.0
823,mp-556428,Ba3Fe2Br2O5,"{'Ba': 3.0, 'Fe': 2.0, 'Br': 2.0, 'O': 5.0}",0.3528787714204638,4.738471715518381,,0.0
824,mp-556960,Sr3Fe2(SeO3)6,"{'Sr': 3.0, 'Fe': 2.0, 'Se': 6.0, 'O': 18.0}",0.4569868960141519,4.0852735383182965,,0.0
825,mp-560149,SrFe2(SeO3)4,"{'Sr': 1.0, 'Fe': 2.0, 'Se': 4.0, 'O': 12.0}",0.46148106856956456,4.080219905822487,,0.0
826,mp-560628,CsFe(SO4)2,"{'Cs': 1.0, 'Fe': 1.0, 'S': 2.0, 'O': 8.0}",0.5157810099380625,3.2563724043876596,,0.0
827,mp-561067,KRb2FeF6,"{'K': 1.0, 'Rb': 2.0, 'Fe': 1.0, 'F': 6.0}",0.3500421155008848,3.4268223606196653,"{'G_Reuss': 22.0, 'G_VRH': 23.0, 'G_Voigt': 23.0, 'G_Voigt_Reuss_Hill': 23.0, 'K_Reuss': 49.0, 'K_VRH': 49.0, 'K_Voigt': 49.0, 'K_Voigt_Reuss_Hill': 49.0, 'elastic_anisotropy': 0.34, 'elastic_tensor': [[91.0, 29.0, 29.0, 0.0, 0.0, 0.0], [29.0, 91.0, 29.0, 0.0, 0.0, 0.0], [29.0, 29.0, 91.0, 0.0, 0.0, 0.0], [0.0, 0.0, 0.0, 18.0, 0.0, 0.0], [0.0, 0.0, 0.0, 0.0, 18.0, 0.0], [0.0, 0.0, 0.0, 0.0, 0.0, 18.0]], 'homogeneous_poisson': 0.3, 'poisson_ratio': 0.3, 'universal_anisotropy': 0.34, 'elastic_tensor_original': [[91.07195047728564, 28.693471558993686, 28.693471558993686, 0.0, 0.0, 0.0], [28.693471558993686, 91.07195047728564, 28.693471558993686, 0.0, 0.0, 0.0], [28.693471558993686, 28.693471558993686, 91.07195047728564, 0.0, 0.0, 0.0], [0.0, 0.0, 0.0, 18.371032128159086, 0.0, 0.0], [0.0, 0.0, 0.0, 0.0, 18.371032128159086, 0.0], [0.0, 0.0, 0.0, 0.0, 0.0, 18.371032128159086]], 'compliance_tensor': [[12.932737099933544, -3.0984329019813135, -3.098432901981314, 3.690898224965003e-17, -2.206788350040622e-16, 6.662219438563786e-17], [-3.0984329019813144, 12.932737099933544, -3.0984329019813135, -2.2067883500406225e-16, 3.6908982249650015e-17, -6.662219438563786e-17], [-3.098432901981314, -3.0984329019813135, 12.932737099933545, -2.206788350040622e-16, -2.206788350040622e-16, 4.2644263408156346e-33], [3.690898224965002e-17, -2.206788350040622e-16, -2.206788350040622e-16, 54.43352300642936, 6.199542437120349e-33, -3.2421001163935e-16], [-2.206788350040622e-16, 3.690898224965002e-17, -2.2067883500406225e-16, 6.199542437120349e-33, 54.43352300642936, -3.2421001163935e-16], [6.66221943856379e-17, -6.662219438563789e-17, -2.0140467298536372e-33, -3.2421001163935e-16, -3.2421001163935e-16, 54.43352300642936]], 'warnings': [], 'nsites': 10}",0.0
828,mp-569748,ThFe2SiC,"{'Th': 1.0, 'Fe': 2.0, 'Si': 1.0, 'C': 1.0}",0.15899166493360245,9.015685895321191,,0.0
829,mp-607917,La21Fe8Sn7C12,"{'La': 21.0, 'Fe': 8.0, 'Sn': 7.0, 'C': 12.0}",0.16170326794183082,6.454809325414495,,0.0
830,mp-642273,U6Fe16Si7C,"{'U': 6.0, 'Fe': 16.0, 'Si': 7.0, 'C': 1.0}",0.18094482132316594,10.748561280365342,,0.0
831,mp-696951,Fe3H4(OF4)2,"{'Fe': 3.0, 'H': 4.0, 'O': 2.0, 'F': 8.0}",0.18550630111312005,3.018369189442743,,0.5015714706155805
832,mp-849623,Li2FeP2O7,"{'Li': 2.0, 'Fe': 1.0, 'P': 2.0, 'O': 7.0}",0.5098813087419941,3.000860361187999,,0.0
833,mp-1106019,CaFe(GeO3)2,"{'Ca': 1.0, 'Fe': 1.0, 'Ge': 2.0, 'O': 6.0}",0.49653078411213536,4.420046944605676,,0.0
834,mp-1177503,Li4Cr3FeO8,"{'Li': 4.0, 'Cr': 3.0, 'Fe': 1.0, 'O': 8.0}",0.6246470053406216,4.131816119831298,,0.6573356250267892
835,mp-1204059,Fe3Ag7(P2O7)4,"{'Fe': 3.0, 'Ag': 7.0, 'P': 8.0, 'O': 28.0}",0.4843978441853156,4.557973658069146,,0.0
836,mp-1205067,KNa4FeO4,"{'K': 1.0, 'Na': 4.0, 'Fe': 1.0, 'O': 4.0}",0.5024563019387985,2.719553760971719,,0.0
837,mp-1208208,Y3Ga3(FeO6)2,"{'Y': 3.0, 'Ga': 3.0, 'Fe': 2.0, 'O': 12.0}",0.5163782270891597,5.330914290248596,,0.0
838,mp-1211726,K2Rb4Fe2O5,"{'K': 2.0, 'Rb': 4.0, 'Fe': 2.0, 'O': 5.0}",0.5212732656386363,3.4576080226621086,,0.0
839,mp-1212713,Fe3B7BrO13,"{'Fe': 3.0, 'B': 7.0, 'Br': 1.0, 'O': 13.0}",0.5251972028279217,3.8086348036761497,,0.0
840,mp-1213658,CsPr6FeI10,"{'Cs': 1.0, 'Pr': 6.0, 'Fe': 1.0, 'I': 10.0}",0.18477589612452636,4.912844374734466,,0.0
841,mp-1213677,CsLa6FeI10,"{'Cs': 1.0, 'La': 6.0, 'Fe': 1.0, 'I': 10.0}",0.1931600047098042,4.7606109384613715,,0.0
842,mp-1213695,Cs4Rb2Fe2O5,"{'Cs': 4.0, 'Rb': 2.0, 'Fe': 2.0, 'O': 5.0}",0.5540339918389403,4.452770282377451,,0.0
843,mp-1216153,Y2CrFeO6,"{'Y': 2.0, 'Cr': 1.0, 'Fe': 1.0, 'O': 6.0}",0.569985650109521,5.491996534780129,,0.0
844,mp-1216330,VFeSbO6,"{'V': 1.0, 'Fe': 1.0, 'Sb': 1.0, 'O': 6.0}",0.5744942109503225,5.409447500367049,,0.0
845,mp-1216335,YErFe14B,"{'Y': 1.0, 'Er': 1.0, 'Fe': 14.0, 'B': 1.0}",0.20266471519833568,7.687929420995335,,0.0
846,mp-1218233,Ta6Mn2FeO18,"{'Ta': 6.0, 'Mn': 2.0, 'Fe': 1.0, 'O': 18.0}",0.5168590894311643,7.791974617083074,,0.6635877778524701
847,mp-1220639,Nd2MnFe3Ge4,"{'Nd': 2.0, 'Mn': 1.0, 'Fe': 3.0, 'Ge': 4.0}",0.1987574458216515,7.780077995520569,,0.0
848,mp-1222018,Mn2Cr3FeO8,"{'Mn': 2.0, 'Cr': 3.0, 'Fe': 1.0, 'O': 8.0}",0.514649887676687,4.666920546315835,,0.0
849,mp-1225933,DyTmFe14B,"{'Dy': 1.0, 'Tm': 1.0, 'Fe': 14.0, 'B': 1.0}",0.21418251949271433,8.29756458033246,,0.0
850,mp-1227197,CeNd3(Fe14B)2,"{'Ce': 1.0, 'Nd': 3.0, 'Fe': 28.0, 'B': 2.0}",0.22594544414224652,7.736729395234871,,0.0
851,mp-1227251,CaMnFeGe2,"{'Ca': 1.0, 'Mn': 1.0, 'Fe': 1.0, 'Ge': 2.0}",0.16027912995200064,5.7250282459667625,,0.0
852,mp-1277255,CaFe(GeO3)2,"{'Ca': 1.0, 'Fe': 1.0, 'Ge': 2.0, 'O': 6.0}",0.49670482362758545,4.421596219802946,,0.8691372500129191
853,mp-1286142,BaFe2(PO4)2,"{'Ba': 1.0, 'Fe': 2.0, 'P': 2.0, 'O': 8.0}",0.5174807165180911,4.3121121530914985,,0.12185576924039765
854,mp-1307146,Ca2FeIrO6,"{'Ca': 2.0, 'Fe': 1.0, 'Ir': 1.0, 'O': 6.0}",0.5717882621684878,5.99759511001574,,0.0
855,mp-1312000,La4FeSe6O,"{'La': 4.0, 'Fe': 1.0, 'Se': 6.0, 'O': 1.0}",0.2159500909959092,6.160666775405022,,0.0038289583335071598
856,mp-19127,Sr2FeMoO6,"{'Sr': 2.0, 'Fe': 1.0, 'Mo': 1.0, 'O': 6.0}",0.5764546180915937,5.465475723894392,"{'G_Reuss': -14.0, 'G_VRH': -15.0, 'G_Voigt': -16.0, 'G_Voigt_Reuss_Hill': -15.0, 'K_Reuss': 161.0, 'K_VRH': 161.0, 'K_Voigt': 161.0, 'K_Voigt_Reuss_Hill': 161.0, 'elastic_anisotropy': 0.43, 'elastic_tensor': [[137.0, 174.0, 169.0, 0.0, 0.0, 0.0], [174.0, 137.0, 169.0, 0.0, 0.0, 0.0], [169.0, 169.0, 151.0, 0.0, 0.0, 0.0], [0.0, 0.0, 0.0, -19.0, 0.0, 0.0], [0.0, 0.0, 0.0, 0.0, -19.0, 0.0], [0.0, 0.0, 0.0, 0.0, 0.0, -10.0]], 'homogeneous_poisson': 0.55, 'poisson_ratio': 0.55, 'universal_anisotropy': 0.43, 'elastic_tensor_original': [[65.9048057717809, 332.173239567574, 30.895176110148498, 0.0, 0.0, 0.0], [332.173239567574, 65.9048057717809, 30.895176110148498, 0.0, 0.0, 0.0], [154.35180612859256, 154.35180612859256, 282.9702868655943, 0.0, 0.0, 0.0], [0.0, 0.0, 0.0, 39.10663886310735, 0.0, 0.0], [0.0, 0.0, 0.0, 0.0, 39.10663886310735, 0.0], [0.0, 0.0, 0.0, 0.0, 0.0, -117.42088757718274]], 'compliance_tensor': [[-20.614659650440466, 5.996497170791221, 16.403485264234543, -2.908043369317e-15, -1.296891929175966e-15, 5.174229520453354e-16], [5.996497170791223, -20.614659650440476, 16.403485264234554, -1.296891929175966e-15, -2.9080433693170015e-15, 5.174229520453356e-16], [16.40348526423454, 16.403485264234554, -30.182631161025324, 3.265984619772503e-15, 3.2659846197725038e-15, -7.839597105477675e-16], [-2.9080433693170003e-15, -1.296891929175966e-15, 3.2659846197725034e-15, -52.23807474973207, -1.6157839235822492e-15, 2.9087413275475452e-15], [-1.2968919291759653e-15, -2.9080433693170023e-15, 3.2659846197725046e-15, -1.6157839235822492e-15, -52.23807474973207, 2.908741327547545e-15], [-3.1427231499985584e-16, -3.1427231499985633e-16, 1.0825814605880949e-15, 2.9087413275475444e-15, 2.9087413275475444e-15, -96.08652506680515]], 'warnings': ['Elastic tensor has a negative eigenvalue', 'c11 and c12 are within 5% or c12 is greater than c11', 'c11 and c13 are within 5% or c13 is greater than c11', 'c11 and c23 are within 5% or c23 is greater than c11', 'One or more K, G below 2 GPa'], 'nsites': 20}",0.7381334166671749
857,mp-20431,Ca2FeSbO6,"{'Ca': 2.0, 'Fe': 1.0, 'Sb': 1.0, 'O': 6.0}",0.5601448476793991,4.861988743473861,,0.0
858,mp-22484,Ba7MnFe6F34,"{'Ba': 7.0, 'Mn': 1.0, 'Fe': 6.0, 'F': 34.0}",0.21230852718720777,4.303634058593504,,0.0
859,mp-31760,Sr2TaFeO6,"{'Sr': 2.0, 'Ta': 1.0, 'Fe': 1.0, 'O': 6.0}",0.5778728766808975,6.548138691697353,,0.0
860,mp-504649,RbCr2FeO8,"{'Rb': 1.0, 'Cr': 2.0, 'Fe': 1.0, 'O': 8.0}",0.513933192716259,3.3272584820924447,,0.0
861,mp-556401,Ti2Fe(PO5)2,"{'Ti': 2.0, 'Fe': 1.0, 'P': 2.0, 'O': 10.0}",0.5090033811701724,3.3963137836648896,,0.0
862,mp-560924,K2NaFeO3,"{'K': 2.0, 'Na': 1.0, 'Fe': 1.0, 'O': 3.0}",0.5346911546818696,2.858168652799528,,0.0
863,mp-563010,RbFe(MoO4)2,"{'Rb': 1.0, 'Fe': 1.0, 'Mo': 2.0, 'O': 8.0}",0.41377616665619893,3.4187321584041577,,0.6030875000000435
864,mp-581532,Cs3Fe4(PO4)5,"{'Cs': 3.0, 'Fe': 4.0, 'P': 5.0, 'O': 20.0}",0.49983648852034596,3.5570222238455256,,0.0
865,mp-647805,Ce21Fe8Bi7C12,"{'Ce': 21.0, 'Fe': 8.0, 'Bi': 7.0, 'C': 12.0}",0.15800408064141389,7.923560315943301,,0.0
866,mp-753899,LiFe(CO3)2,"{'Li': 1.0, 'Fe': 1.0, 'C': 2.0, 'O': 6.0}",0.5758319747411168,3.1130108169225776,,0.0
867,mp-756320,Li3Fe4SbO8,"{'Li': 3.0, 'Fe': 4.0, 'Sb': 1.0, 'O': 8.0}",0.5338561954322136,4.921752424565657,,0.0
868,mp-761944,Li2FeCo3O8,"{'Li': 2.0, 'Fe': 1.0, 'Co': 3.0, 'O': 8.0}",0.5963161264154938,4.553957645066622,,0.0
869,mp-767722,VFe(P2O7)2,"{'V': 1.0, 'Fe': 1.0, 'P': 4.0, 'O': 14.0}",0.46618002473571707,2.8234216780185077,,0.0
870,mp-769530,Li3Mn4(FeO6)2,"{'Li': 3.0, 'Mn': 4.0, 'Fe': 2.0, 'O': 12.0}",0.538821546756875,4.0761486535288665,,0.0
871,mp-774920,LiFeSbO4,"{'Li': 1.0, 'Fe': 1.0, 'Sb': 1.0, 'O': 4.0}",0.4873272731277066,4.839395264346652,,0.0
872,mvc-12243,Ba2Fe2CuF14,"{'Ba': 2.0, 'Fe': 2.0, 'Cu': 1.0, 'F': 14.0}",0.1887371933283046,4.023524737982927,,0.0
873,mp-1025354,Er2Fe2Si2C,"{'Er': 2.0, 'Fe': 2.0, 'Si': 2.0, 'C': 1.0}",0.14906151429182124,8.070122738219048,"{'G_Reuss': 81.0, 'G_VRH': 85.0, 'G_Voigt': 89.0, 'G_Voigt_Reuss_Hill': 85.0, 'K_Reuss': 138.0, 'K_VRH': 139.0, 'K_Voigt': 139.0, 'K_Voigt_Reuss_Hill': 139.0, 'elastic_anisotropy': 0.45, 'elastic_tensor': [[242.0, 94.0, 84.0, 0.0, -41.0, 0.0], [94.0, 260.0, 83.0, 0.0, 13.0, 0.0], [84.0, 83.0, 229.0, 0.0, 14.0, 0.0], [0.0, 0.0, 0.0, 96.0, 0.0, 17.0], [-41.0, 13.0, 14.0, 0.0, 96.0, 0.0], [0.0, 0.0, 0.0, 17.0, 0.0, 94.0]], 'homogeneous_poisson': 0.25, 'poisson_ratio': 0.25, 'universal_anisotropy': 0.45, 'elastic_tensor_original': [[241.84029976271992, 105.59353892241764, 92.8310429072313, 0.0, -37.864879547058315, 0.0], [83.09112222890819, 260.4168723652667, 80.92515591390894, 1.8000005941916505e-06, 13.949175004711432, 1.0200003367086018e-05], [74.82299212431994, 84.92441358735657, 229.0083677963389, 0.0, 14.481920759586755, 0.0], [0.0, 4.294831503559891e-06, 0.0, 95.69069537231584, 0.0, 17.254458145150323], [-44.50379494354118, 12.077836325183053, 12.541936596556432, 0.0, 96.42615648551418, 0.0], [0.0, 2.3348653522133423e-05, 0.0, 17.356055135173197, 0.0, 93.80585316189179]], 'compliance_tensor': [[5.9, -1.8, -1.7, 0.0, 3.0, -0.0], [-1.8, 4.9, -1.0, 0.0, -1.3, -0.0], [-1.7, -1.0, 5.5, 0.0, -1.4, 0.0], [0.0, 0.0, 0.0, 10.8, -0.0, -2.0], [3.0, -1.3, -1.4, -0.0, 12.0, 0.0], [-0.0, -0.0, 0.0, -2.0, 0.0, 11.0]], 'warnings': ['Contains a rare earth element'], 'nsites': 7}",0.0
874,mp-1063914,VFeCoGe,"{'V': 1.0, 'Fe': 1.0, 'Co': 1.0, 'Ge': 1.0}",0.1754998823243874,8.292997505229458,,0.0
875,mp-1095213,BaFe2S2O,"{'Ba': 1.0, 'Fe': 2.0, 'S': 2.0, 'O': 1.0}",0.24470861505668848,4.036463609799146,,0.0
876,mp-1205160,Rb9Fe7(PO4)10,"{'Rb': 9.0, 'Fe': 7.0, 'P': 10.0, 'O': 40.0}",0.49386754098343194,3.247779183640694,,0.0
877,mp-1206795,SmFe2SiC,"{'Sm': 1.0, 'Fe': 2.0, 'Si': 1.0, 'C': 1.0}",0.20164759544078942,7.363902405443208,,0.0
878,mp-1209220,RbFe(SO4)2,"{'Rb': 1.0, 'Fe': 1.0, 'S': 2.0, 'O': 8.0}",0.5256177670604096,3.079712792602758,,0.0
879,mp-1213528,Eu3Sc2(FeO4)3,"{'Eu': 3.0, 'Sc': 2.0, 'Fe': 3.0, 'O': 12.0}",0.5154689820347301,5.707382254937947,,0.0
880,mp-1215741,Zn2Cr3FeO8,"{'Zn': 2.0, 'Cr': 3.0, 'Fe': 1.0, 'O': 8.0}",0.5563208479853635,5.068841681141353,,0.0
881,mp-1218594,Sr5Fe4MoO15,"{'Sr': 5.0, 'Fe': 4.0, 'Mo': 1.0, 'O': 15.0}",0.6007861576315878,5.344296842266533,,0.0
882,mp-1221899,Mn2FeSbO6,"{'Mn': 2.0, 'Fe': 1.0, 'Sb': 1.0, 'O': 6.0}",0.49808400732268265,5.511366062777149,,0.0
883,mp-1223574,KFeSn3O8,"{'K': 1.0, 'Fe': 1.0, 'Sn': 3.0, 'O': 8.0}",0.5106310083832425,5.3647735920382225,,0.0
884,mp-1224743,Fe2Ni(PO4)2,"{'Fe': 2.0, 'Ni': 1.0, 'P': 2.0, 'O': 8.0}",0.49467415951817445,3.9299164648021434,,0.0
885,mp-1296462,La4FeSe6O,"{'La': 4.0, 'Fe': 1.0, 'Se': 6.0, 'O': 1.0}",0.21626745695881955,6.169720654170849,,0.0
886,mp-1297758,LaFeTeO6,"{'La': 1.0, 'Fe': 1.0, 'Te': 1.0, 'O': 6.0}",0.5477498987695634,5.540731652437159,,0.0
887,mp-1573681,MgFe(GeO3)2,"{'Mg': 1.0, 'Fe': 1.0, 'Ge': 2.0, 'O': 6.0}",0.5113042742647423,4.597511876444085,,0.0