,mp_id,Formula,Composition,IPF,Density,Elastic_Tensor,E_above_Hull
572,mp-1215420,Zr3TaFe8,"{'Zr': 3.0, 'Ta': 1.0, 'Fe': 8.0}",0.18297947353684896,8.816580875468109,,0.0
573,mp-1215720,Zr3AlFe8,"{'Zr': 3.0, 'Al': 1.0, 'Fe': 8.0}",0.17807219112397138,7.356404591008011,,0.0
574,mp-1215874,Zr3(V2Fe)2,"{'Zr': 3.0, 'V': 4.0, 'Fe': 2.0}",0.14755407195191547,6.8546673381409144,,0.0
575,mp-1216443,V6FeNi,"{'V': 6.0, 'Fe': 1.0, 'Ni': 1.0}",0.1584757855384847,6.865814425250265,,0.0
576,mp-1217710,Tb2FeCo3,"{'Tb': 2.0, 'Fe': 1.0, 'Co': 3.0}",0.17888669800585416,10.08399146415291,,0.0
577,mp-1222161,Mn4FeGe3,"{'Mn': 4.0, 'Fe': 1.0, 'Ge': 3.0}",0.11900747558856066,7.56127130052055,,0.0
578,mp-1222342,Lu2Al3Fe,"{'Lu': 2.0, 'Al': 3.0, 'Fe': 1.0}",0.1368416635882685,7.441361085802896,,0.0
579,mp-1224691,Fe2SbTe3,"{'Fe': 2.0, 'Sb': 1.0, 'Te': 3.0}",0.27479147543153826,8.08702751125837,,0.0
580,mp-1224908,FeNiSb6,"{'Fe': 1.0, 'Ni': 1.0, 'Sb': 6.0}",0.0980738378429099,7.374353075532596,,0.0
581,mp-1224986,FeNiP6,"{'Fe': 1.0, 'Ni': 1.0, 'P': 6.0}",0.07288489800191378,4.29009917335856,,0.0
582,mp-1228374,Al5FeNi,"{'Al': 5.0, 'Fe': 1.0, 'Ni': 1.0}",0.10909884546816638,4.210080539910371,,0.0
583,mp-1228719,Al37(Fe6Cu)2,"{'Al': 37.0, 'Fe': 12.0, 'Cu': 2.0}",0.11627118082871271,4.1553988393561285,,0.0
584,mp-12962,Zr6FeSb2,"{'Zr': 6.0, 'Fe': 1.0, 'Sb': 2.0}",0.12096057843147197,7.276886289223003,"{'G_Reuss': 58.0, 'G_VRH': 58.0, 'G_Voigt': 59.0, 'G_Voigt_Reuss_Hill': 58.0, 'K_Reuss': 113.0, 'K_VRH': 113.0, 'K_Voigt': 113.0, 'K_Voigt_Reuss_Hill': 113.0, 'elastic_anisotropy': 0.11, 'elastic_tensor': [[189.0, 87.0, 74.0, 0.0, 0.0, 0.0], [87.0, 189.0, 74.0, 0.0, 0.0, 0.0], [74.0, 74.0, 172.0, 0.0, 0.0, 0.0], [0.0, 0.0, 0.0, 69.0, 0.0, 0.0], [0.0, 0.0, 0.0, 0.0, 69.0, 0.0], [0.0, 0.0, 0.0, 0.0, 0.0, 51.0]], 'homogeneous_poisson': 0.28, 'poisson_ratio': 0.28, 'universal_anisotropy': 0.11, 'elastic_tensor_original': [[189.29981154612005, 84.9608510855811, 73.99258772931229, 0.0, 0.0, 0.0], [86.40015731023122, 190.17294306065523, 74.80701153662612, 0.0, 0.0, 0.0], [74.50824483774866, 74.50822305854231, 172.4656758389429, 0.0, 0.0, 0.0], [-0.0017303635383747874, -0.002003116866478482, -0.0011414569651580378, 68.90958669949339, 0.0, 0.0], [0.0003845267606162513, 0.000329146747085349, 0.0002315733899123036, 0.0, 69.0141299618675, 0.0], [0.37984365106985835, 0.39439273621784526, 0.3455848356144426, 0.0, 0.0, 49.89994981983882]], 'compliance_tensor': [[7.3, -2.5, -2.0, 0.0, 0.0, -0.0], [-2.5, 7.3, -2.0, 0.0, 0.0, -0.0], [-2.0, -2.0, 7.6, 0.0, 0.0, 0.0], [0.0, -0.0, -0.0, 14.5, -0.0, -0.0], [0.0, -0.0, -0.0, -0.0, 14.5, -0.0], [-0.0, -0.0, 0.0, 0.0, 0.0, 19.6]], 'warnings': [], 'nsites': 9}",0.0
585,mp-13464,Ca(FeSb3)4,"{'Ca': 1.0, 'Fe': 4.0, 'Sb': 12.0}",0.1172575252202069,7.408112122824289,,0.0
586,mp-13745,Na5FeO4,"{'Na': 5.0, 'Fe': 1.0, 'O': 4.0}",0.4799186838047752,2.719509975667646,,0.0
587,mp-14698,Ho2Fe14B,"{'Ho': 2.0, 'Fe': 14.0, 'B': 1.0}",0.20399454527146932,8.253032981888097,,0.0
588,mp-14889,K9Fe2S7,"{'K': 9.0, 'Fe': 2.0, 'S': 7.0}",0.30325846310414023,2.1989304916570256,,0.0
589,mp-19026,Na4FeO3,"{'Na': 4.0, 'Fe': 1.0, 'O': 3.0}",0.44020581777123957,2.6561267348534954,,0.0
590,mp-19154,Ba(FeO2)2,"{'Ba': 1.0, 'Fe': 2.0, 'O': 4.0}",0.4557707504744081,4.506892566433447,,0.0
591,mp-20243,SmFeO3,"{'Sm': 1.0, 'Fe': 1.0, 'O': 3.0}",0.5871742295772254,6.98015857642867,,0.0
592,mp-20313,Fe2SiO4,"{'Fe': 2.0, 'Si': 1.0, 'O': 4.0}",0.49305982364023937,4.238063600147045,,0.0
593,mp-20416,SmFeB4,"{'Sm': 1.0, 'Fe': 1.0, 'B': 4.0}",0.19485376394909648,7.0027655034931335,,0.0
594,mp-20722,CeFeGe3,"{'Ce': 1.0, 'Fe': 1.0, 'Ge': 3.0}",0.14833360499623222,7.491056880340569,,0.0
595,mp-21363,TbFeSi,"{'Tb': 1.0, 'Fe': 1.0, 'Si': 1.0}",0.1343122029832427,7.5067882962236485,"{'G_Reuss': 50.0, 'G_VRH': 54.0, 'G_Voigt': 58.0, 'G_Voigt_Reuss_Hill': 54.0, 'K_Reuss': 86.0, 'K_VRH': 88.0, 'K_Voigt': 90.0, 'K_Voigt_Reuss_Hill': 88.0, 'elastic_anisotropy': 0.88, 'elastic_tensor': [[188.0, 49.0, 57.0, 0.0, 0.0, 0.0], [49.0, 188.0, 57.0, 0.0, 0.0, 0.0], [57.0, 57.0, 111.0, 0.0, 0.0, 0.0], [0.0, 0.0, 0.0, 41.0, 0.0, 0.0], [0.0, 0.0, 0.0, 0.0, 41.0, 0.0], [0.0, 0.0, 0.0, 0.0, 0.0, 100.0]], 'homogeneous_poisson': 0.25, 'poisson_ratio': 0.25, 'universal_anisotropy': 0.88, 'elastic_tensor_original': [[187.91000827792195, 49.29191638010364, 61.78048188719542, 0.0, 0.0, 0.0], [49.29191638010364, 187.91000827792195, 61.78048188719542, 0.0, 0.0, 0.0], [52.665730360839326, 52.665730360839326, 110.79605962349693, 0.0, 0.0, 0.0], [0.0, 0.0, 0.0, 41.27514109398394, 0.0, 0.0], [0.0, 0.0, 0.0, 0.0, 41.27514109398394, 0.0], [1.001559537639149, -1.0015595376391488, 0.0, 0.0, 0.0, 100.1499266265739]], 'compliance_tensor': [[6.4, -0.8, -2.9, 0.0, 0.0, -0.0], [-0.8, 6.4, -2.9, 0.0, 0.0, 0.0], [-2.9, -2.9, 12.0, 0.0, 0.0, -0.0], [0.0, 0.0, 0.0, 24.2, 0.0, 0.0], [0.0, 0.0, 0.0, 0.0, 24.2, 0.0], [-0.0, 0.0, -0.0, 0.0, 0.0, 10.0]], 'warnings': ['Contains a rare earth element'], 'nsites': 6}",0.0
596,mp-21883,VGaFe2,"{'V': 1.0, 'Ga': 1.0, 'Fe': 2.0}",0.19263137974617478,8.260081041652537,"{'G_Reuss': 121.0, 'G_VRH': 122.0, 'G_Voigt': 122.0, 'G_Voigt_Reuss_Hill': 122.0, 'K_Reuss': 225.0, 'K_VRH': 225.0, 'K_Voigt': 225.0, 'K_Voigt_Reuss_Hill': 225.0, 'elastic_anisotropy': 0.03, 'elastic_tensor': [[372.0, 151.0, 151.0, 0.0, 0.0, 0.0], [151.0, 372.0, 151.0, 0.0, 0.0, 0.0], [151.0, 151.0, 372.0, 0.0, 0.0, 0.0], [0.0, 0.0, 0.0, 130.0, 0.0, 0.0], [0.0, 0.0, 0.0, 0.0, 130.0, 0.0], [0.0, 0.0, 0.0, 0.0, 0.0, 130.0]], 'homogeneous_poisson': 0.27, 'poisson_ratio': 0.27, 'universal_anisotropy': 0.03, 'elastic_tensor_original': [[372.1214233772261, 150.89567783177893, 150.8954607884115, -3.964773428516227e-07, -1.2370853631076775e-05, 4.498558956982984e-06], [150.87792935417565, 372.5206299852798, 150.88220986314627, 0.00018760794885685063, -0.0004301975552051388, 5.478215945990129e-05], [150.89532621061244, 150.895431666506, 372.12198556829765, 0.0, 0.0, 0.0], [-0.00023472234661507305, -2.898122825438329e-05, -0.00012209732750310492, 129.8978113349905, 0.0, 0.0], [-0.0006656798362512852, -0.0006581555058465313, -0.0006790098339330978, 0.0, 129.89760607594906, 0.0], [-0.0737816173599218, -0.0684665553445904, -0.06981500705184603, 0.0, 0.0, 129.90331283698785]], 'compliance_tensor': [[3.5, -1.0, -1.0, -0.0, -0.0, 0.0], [-1.0, 3.5, -1.0, 0.0, 0.0, 0.0], [-1.0, -1.0, 3.5, 0.0, -0.0, -0.0], [-0.0, 0.0, 0.0, 7.7, 0.0, -0.0], [-0.0, 0.0, -0.0, 0.0, 7.7, 0.0], [0.0, 0.0, -0.0, -0.0, 0.0, 7.7]], 'warnings': [], 'nsites': 4}",0.0
597,mp-28104,Fe2MoP12,"{'Fe': 2.0, 'Mo': 1.0, 'P': 12.0}",0.07112575859845713,4.413376834714469,,0.0
598,mp-28378,HfFeSi2,"{'Hf': 1.0, 'Fe': 1.0, 'Si': 2.0}",0.11561175047586301,8.597550733497272,,0.0
599,mp-28696,K3FeO4,"{'K': 3.0, 'Fe': 1.0, 'O': 4.0}",0.5637880295180934,2.7666911677423185,,0.0
600,mp-31179,Ho(Al2Fe)4,"{'Ho': 1.0, 'Al': 8.0, 'Fe': 4.0}",0.1341424114016068,5.295733071952097,,0.0
601,mp-31197,Er(FeSn)6,"{'Er': 1.0, 'Fe': 6.0, 'Sn': 6.0}",0.15244814564748596,8.907220761649755,,0.0
602,mp-3299,Sr(FeP)2,"{'Sr': 1.0, 'Fe': 2.0, 'P': 2.0}",0.19550052751793978,5.2294993112533685,"{'G_Reuss': 52.0, 'G_VRH': 57.0, 'G_Voigt': 62.0, 'G_Voigt_Reuss_Hill': 57.0, 'K_Reuss': 83.0, 'K_VRH': 92.0, 'K_Voigt': 100.0, 'K_Voigt_Reuss_Hill': 92.0, 'elastic_anisotropy': 1.12, 'elastic_tensor': [[219.0, 67.0, 60.0, 0.0, 0.0, 0.0], [67.0, 219.0, 60.0, 0.0, 0.0, 0.0], [60.0, 60.0, 93.0, 0.0, 0.0, 0.0], [0.0, 0.0, 0.0, 49.0, 0.0, 0.0], [0.0, 0.0, 0.0, 0.0, 49.0, 0.0], [0.0, 0.0, 0.0, 0.0, 0.0, 97.0]], 'homogeneous_poisson': 0.24, 'poisson_ratio': 0.24, 'universal_anisotropy': 1.12, 'elastic_tensor_original': [[218.81730157851698, 66.50873011426722, 60.18391046422603, 0.0, 0.0, 0.0], [66.5092384076694, 218.8168536075253, 60.18395593073854, 0.0, 0.0, 0.0], [59.867049538100105, 59.867049538100105, 92.52799657322433, 0.0, 0.0, 0.0], [-3.3319972716124184e-05, 6.784661111212793e-05, 2.0549983173551147e-05, 49.283794971697816, 0.0, 0.0], [2.4143313564247568e-05, -5.619662065075833e-05, -1.951331735456666e-05, 0.0, 49.28384237832567, 0.0], [1.22333233815867e-06, 1.620665345045709e-05, 6.189994953247577e-06, 0.0, 0.0, 96.59814682152731]], 'compliance_tensor': [[5.7, -0.9, -3.1, 0.0, 0.0, 0.0], [-0.9, 5.7, -3.1, -0.0, 0.0, 0.0], [-3.1, -3.1, 14.9, -0.0, -0.0, -0.0], [0.0, -0.0, -0.0, 20.3, 0.0, 0.0], [0.0, 0.0, -0.0, 0.0, 20.3, -0.0], [0.0, 0.0, -0.0, 0.0, -0.0, 10.4]], 'warnings': [], 'nsites': 5}",0.0
603,mp-3633,Er(Al2Fe)4,"{'Er': 1.0, 'Al': 8.0, 'Fe': 4.0}",0.1337670987965217,5.332372758367221,,0.0
604,mp-4193,Tm9(FeGe)10,"{'Tm': 9.0, 'Fe': 10.0, 'Ge': 10.0}",0.19096164425738604,9.406045199327176,,0.0
605,mp-4939,Dy(FeSi)2,"{'Dy': 1.0, 'Fe': 2.0, 'Si': 2.0}",0.16826154390583853,7.343450701054419,"{'G_Reuss': 82.0, 'G_VRH': 84.0, 'G_Voigt': 85.0, 'G_Voigt_Reuss_Hill': 84.0, 'K_Reuss': 148.0, 'K_VRH': 149.0, 'K_Voigt': 149.0, 'K_Voigt_Reuss_Hill': 149.0, 'elastic_anisotropy': 0.17, 'elastic_tensor': [[265.0, 94.0, 104.0, 0.0, 0.0, 0.0], [94.0, 265.0, 104.0, 0.0, 0.0, 0.0], [104.0, 104.0, 211.0, 0.0, 0.0, 0.0], [0.0, 0.0, 0.0, 88.0, 0.0, 0.0], [0.0, 0.0, 0.0, 0.0, 88.0, 0.0], [0.0, 0.0, 0.0, 0.0, 0.0, 101.0]], 'homogeneous_poisson': 0.26, 'poisson_ratio': 0.26, 'universal_anisotropy': 0.17, 'elastic_tensor_original': [[264.5879082373317, 94.42228622600105, 110.23990711451827, 0.0, 1.1599964130418248e-05, 0.0], [94.42228622600105, 264.5879082373317, 110.23990711451827, 1.1599964134701738e-05, 2.3164546522816998e-07, 0.0], [97.13052877999932, 97.13052877999932, 210.68812022472022, 0.0, 0.0, 0.0], [0.0, 1.8592718250490193e-07, 0.0, 88.48298107863003, 0.0, 9.296320766726202e-08], [1.8592718595946268e-07, 0.0, 0.0, 0.0, 88.48298107863003, 9.296398125243614e-08], [1.0150173392742645, -1.0150173392742259, 0.0, -2.000024707024263e-07, 2.0000247078126942e-07, 101.49787787978782]], 'compliance_tensor': [[4.9, -1.0, -1.9, 0.0, -0.0, 0.0], [-1.0, 4.9, -1.9, -0.0, 0.0, 0.0], [-1.9, -1.9, 6.6, -0.0, -0.0, 0.0], [0.0, -0.0, -0.0, 11.3, 0.0, -0.0], [-0.0, 0.0, -0.0, 0.0, 11.3, -0.0], [0.0, 0.0, 0.0, -0.0, -0.0, 9.9]], 'warnings': ['Contains a rare earth element'], 'nsites': 5}",0.0
606,mp-5372,RbFeS2,"{'Rb': 1.0, 'Fe': 1.0, 'S': 2.0}",0.2543008406930701,3.1586920367926523,"{'G_Reuss': 5.0, 'G_VRH': 7.0, 'G_Voigt': 10.0, 'G_Voigt_Reuss_Hill': 7.0, 'K_Reuss': 15.0, 'K_VRH': 17.0, 'K_Voigt': 18.0, 'K_Voigt_Reuss_Hill': 17.0, 'elastic_anisotropy': 5.57, 'elastic_tensor': [[19.0, 11.0, 10.0, 0.0, 0.0, 0.0], [11.0, 23.0, 9.0, 0.0, -1.0, 0.0], [10.0, 9.0, 66.0, 0.0, -0.0, 0.0], [0.0, 0.0, 0.0, 2.0, 0.0, -1.0], [0.0, -1.0, -0.0, 0.0, 13.0, 0.0], [0.0, 0.0, 0.0, -1.0, 0.0, 7.0]], 'homogeneous_poisson': 0.31, 'poisson_ratio': 0.31, 'universal_anisotropy': 5.57, 'elastic_tensor_original': [[22.81721758912893, 10.901115856752314, 8.325062317755425, 0.36922750311938207, 0.0, 0.0], [10.970380178379397, 23.767160653497626, 11.074486874792422, 6.479899558455803, 0.0, 0.0], [8.296119259091116, 11.959198730855215, 58.00246791011446, 9.890336182930158, 0.0, 0.0], [-0.201724428620289, 5.89352361026793, 9.15375453744219, 14.652122999993246, 0.0, 0.0], [0.26110769634492104, 0.2531971709753097, 0.20205720767890617, -0.027462197914410836, 1.869686848567803, -1.171042089406568], [0.16713689557222863, 0.1792082390911632, 0.1579926739977296, 0.0012347856817966091, -0.9765203553018282, 6.824342258550471]], 'compliance_tensor': [[72.1, -30.8, -6.7, 0.0, -3.3, 0.0], [-30.8, 59.5, -3.3, 0.0, 4.8, 0.0], [-6.7, -3.3, 16.6, 0.0, -0.1, 0.0], [0.0, 0.0, 0.0, 593.8, 0.0, 77.8], [-3.3, 4.8, -0.1, 0.0, 77.3, 0.0], [0.0, 0.0, 0.0, 77.8, 0.0, 155.3]], 'warnings': [], 'nsites': 8}",0.0
607,mp-541662,Cs3Fe2F9,"{'Cs': 3.0, 'Fe': 2.0, 'F': 9.0}",0.33918555458599536,4.130425695454314,,0.0
608,mp-542475,CsFe2S3,"{'Cs': 1.0, 'Fe': 2.0, 'S': 3.0}",0.26302560808919767,3.8568418625178063,,0.0
609,mp-562055,Yb3Fe5O12,"{'Yb': 3.0, 'Fe': 5.0, 'O': 12.0}",0.5397669755030311,6.852676074970876,,0.0
610,mp-568396,Ba(FeBr4)2,"{'Ba': 1.0, 'Fe': 2.0, 'Br': 8.0}",0.09734177918226111,3.41212946705805,,0.0
611,mp-579496,Fe3PtN,"{'Fe': 3.0, 'Pt': 1.0, 'N': 1.0}",0.1915959768968402,10.875201077103956,"{'G_Reuss': 99.0, 'G_VRH': 100.0, 'G_Voigt': 101.0, 'G_Voigt_Reuss_Hill': 100.0, 'K_Reuss': 214.0, 'K_VRH': 214.0, 'K_Voigt': 214.0, 'K_Voigt_Reuss_Hill': 214.0, 'elastic_anisotropy': 0.08, 'elastic_tensor': [[370.0, 136.0, 136.0, 0.0, 0.0, 0.0], [136.0, 370.0, 136.0, 0.0, 0.0, 0.0], [136.0, 136.0, 370.0, 0.0, 0.0, 0.0], [0.0, 0.0, 0.0, 91.0, 0.0, 0.0], [0.0, 0.0, 0.0, 0.0, 91.0, 0.0], [0.0, 0.0, 0.0, 0.0, 0.0, 91.0]], 'homogeneous_poisson': 0.3, 'poisson_ratio': 0.3, 'universal_anisotropy': 0.08, 'elastic_tensor_original': [[369.58863478986217, 136.35908941248442, 136.35908941248442, 0.0, 0.0, 0.0], [136.35216245150966, 369.58233028881597, 136.35216245150966, 0.0, 0.0, 0.0], [136.38319086005757, 136.38319086005757, 369.61475457180927, 0.0, 0.0, 0.0], [0.0008577914691304404, 0.0007245112408642877, 0.0006852945070299192, 90.61925794598244, 0.0, 0.0], [0.0006246210697839243, 3.727339717102282e-05, 6.608677985375298e-05, 0.0, 90.61944081296231, 0.0], [0.0007054945416283241, 0.0005654209683925339, 0.0007164045603118261, 0.0, 0.0, 90.61914499912233]], 'compliance_tensor': [[3.4, -0.9, -0.9, 0.0, 0.0, -0.0], [-0.9, 3.4, -0.9, 0.0, 0.0, -0.0], [-0.9, -0.9, 3.4, 0.0, 0.0, -0.0], [0.0, 0.0, 0.0, 11.0, 0.0, -0.0], [0.0, 0.0, 0.0, 0.0, 11.0, 0.0], [-0.0, -0.0, -0.0, -0.0, 0.0, 11.0]], 'warnings': [], 'nsites': 5}",0.0
612,mp-623814,Hf8FeTe6,"{'Hf': 8.0, 'Fe': 1.0, 'Te': 6.0}",0.20684426589543933,9.963039215747749,,0.0
613,mp-626680,Fe(HO)2,"{'Fe': 1.0, 'H': 2.0, 'O': 2.0}",0.43912458716330993,3.385648190934757,"{'G_Reuss': 24.0, 'G_VRH': 27.0, 'G_Voigt': 30.0, 'G_Voigt_Reuss_Hill': 27.0, 'K_Reuss': 36.0, 'K_VRH': 44.0, 'K_Voigt': 52.0, 'K_Voigt_Reuss_Hill': 44.0, 'elastic_anisotropy': 1.68, 'elastic_tensor': [[132.0, 53.0, 14.0, 1.0, 0.0, 0.0], [53.0, 132.0, 14.0, -1.0, 0.0, 0.0], [14.0, 14.0, 45.0, 0.0, 0.0, 0.0], [1.0, -1.0, 0.0, 17.0, 0.0, 0.0], [0.0, 0.0, 0.0, 0.0, 17.0, 1.0], [0.0, 0.0, 0.0, 0.0, 1.0, 39.0]], 'homogeneous_poisson': 0.25, 'poisson_ratio': 0.25, 'universal_anisotropy': 1.68, 'elastic_tensor_original': [[132.2565616242947, 51.45668504287315, 15.180329378278786, -2.536117111197333, 0.0, 0.0], [52.78768271195137, 133.89091595126746, 16.526500886049963, 2.2467081262215305, 0.0, 0.0], [12.521469082024776, 12.521466881839146, 45.11543924080756, 0.0, 0.0, 0.0], [-0.174904253615831, 0.3612293207572147, -0.4895819284820482, 16.627266060241624, 0.0, 0.0], [-0.04727295452583204, -0.21016922840208418, -0.43368244109405496, 0.0255744262746407, 17.154003373626054, -0.6082000923609109], [0.007237330613803938, -0.5095585686423943, -0.034500729820058515, -0.11681707511942438, -2.157784768289923, 38.39958573691581]], 'compliance_tensor': [[9.2, -3.5, -1.8, -1.0, -0.0, 0.0], [-3.5, 9.2, -1.8, 1.0, -0.0, 0.0], [-1.8, -1.8, 23.3, -0.0, 0.0, -0.0], [-1.0, 1.0, 0.0, 59.4, 0.0, -0.0], [-0.0, -0.0, 0.0, 0.0, 59.4, -2.0], [0.0, 0.0, -0.0, -0.0, -2.0, 25.4]], 'warnings': [], 'nsites': 20}",0.45838500000172644
614,mp-645166,Tb(GaFe)6,"{'Tb': 1.0, 'Ga': 6.0, 'Fe': 6.0}",0.1558367139759836,7.724231144393665,,0.0
615,mp-669393,Dy2Fe3Si5,"{'Dy': 2.0, 'Fe': 3.0, 'Si': 5.0}",0.1578764711083641,7.151355052296233,,0.0
616,mp-674490,FeSbO4,"{'Fe': 1.0, 'Sb': 1.0, 'O': 4.0}",0.5566926774886706,5.799991894576535,,0.0
617,mp-7085,Tm2FeC4,"{'Tm': 2.0, 'Fe': 1.0, 'C': 4.0}",0.16103643733722256,8.409666654829472,,0.0
618,mp-755536,RbFeO2,"{'Rb': 1.0, 'Fe': 1.0, 'O': 2.0}",0.5364326739740635,4.0083914881766365,,0.0
619,mp-761281,FeSbO4,"{'Fe': 1.0, 'Sb': 1.0, 'O': 4.0}",0.5592206366441339,5.826329842252892,,0.11288750000204573
620,mp-866031,Al2FeIr,"{'Al': 2.0, 'Fe': 1.0, 'Ir': 1.0}",0.13580521487181216,9.665034987039776,"{'G_Reuss': 93.0, 'G_VRH': 99.0, 'G_Voigt': 105.0, 'G_Voigt_Reuss_Hill': 99.0, 'K_Reuss': 182.0, 'K_VRH': 182.0, 'K_Voigt': 182.0, 'K_Voigt_Reuss_Hill': 182.0, 'elastic_anisotropy': 0.66, 'elastic_tensor': [[267.0, 139.0, 139.0, 0.0, 0.0, 0.0], [139.0, 267.0, 139.0, 0.0, 0.0, 0.0], [139.0, 139.0, 267.0, 0.0, 0.0, 0.0], [0.0, 0.0, 0.0, 132.0, 0.0, 0.0], [0.0, 0.0, 0.0, 0.0, 132.0, 0.0], [0.0, 0.0, 0.0, 0.0, 0.0, 132.0]], 'homogeneous_poisson': 0.27, 'poisson_ratio': 0.27, 'universal_anisotropy': 0.66, 'elastic_tensor_original': [[267.0363968263031, 139.26378279000127, 139.2779931255657, -0.2109767820285072, -0.18787383647305675, -0.32781974117075846], [139.19327109355174, 267.03895381850606, 139.34908424060347, 0.5913211827409156, 0.6710067008598748, -0.33265023929278986], [139.23099017216927, 138.95915660506776, 267.21501228167426, 0.5903663064965141, -0.18668268826484827, 0.28645868369536237], [-0.03088303314116395, 0.42781011927928286, -0.4301885129618075, 132.0607266208755, -0.059849517612410155, -0.012083284983106811], [-0.0038511511065196786, -0.028249835573853056, 0.018530407749075623, 0.28243572040196985, 131.85091218552228, -0.03116291784539091], [1.2871742380717666, -1.2991486555166931, 0.05919879984924407, 0.25318087691575847, -0.012579244285023003, 131.8286847425539]], 'compliance_tensor': [[5.8, -2.0, -2.0, 0.0, 0.0, 0.0], [-2.0, 5.8, -2.0, -0.0, -0.0, 0.0], [-2.0, -2.0, 5.8, -0.0, 0.0, -0.0], [0.0, -0.0, -0.0, 7.6, 0.0, 0.0], [0.0, -0.0, 0.0, 0.0, 7.6, -0.0], [0.0, 0.0, -0.0, 0.0, -0.0, 7.6]], 'warnings': [], 'nsites': 4}",0.0
621,mp-866375,TiFe2Ge,"{'Ti': 1.0, 'Fe': 2.0, 'Ge': 1.0}",0.19972684237916302,7.947002590025136,"{'G_Reuss': 127.0, 'G_VRH': 127.0, 'G_Voigt': 127.0, 'G_Voigt_Reuss_Hill': 127.0, 'K_Reuss': 215.0, 'K_VRH': 215.0, 'K_Voigt': 215.0, 'K_Voigt_Reuss_Hill': 215.0, 'elastic_anisotropy': 0.0, 'elastic_tensor': [[383.0, 130.0, 130.0, 0.0, 0.0, 0.0], [130.0, 383.0, 130.0, 0.0, 0.0, 0.0], [130.0, 130.0, 383.0, 0.0, 0.0, 0.0], [0.0, 0.0, 0.0, 127.0, 0.0, 0.0], [0.0, 0.0, 0.0, 0.0, 127.0, 0.0], [0.0, 0.0, 0.0, 0.0, 0.0, 127.0]], 'homogeneous_poisson': 0.25, 'poisson_ratio': 0.25, 'universal_anisotropy': 0.0, 'elastic_tensor_original': [[382.7084258873391, 130.37435036450884, 130.37435036450884, 0.0, 0.0, 0.0], [130.62307360770288, 382.9439468230845, 130.62307360770288, 0.0, 0.0, 0.0], [130.40510783347793, 130.40510783347793, 382.73900906589665, 0.0, 0.0, 0.0], [0.00048532600320310055, 0.0003341795431624634, 0.00029302626608613197, 127.17526740520566, 0.0, 0.0], [0.0012428149676801037, 0.0012976148927663796, 0.0012293649860657435, 0.0, 127.1756879312975, 0.0], [0.00017756309059707628, 0.00015888311613293575, 0.0002022897234611171, 0.0, 0.0, 127.17532141846516]], 'compliance_tensor': [[3.2, -0.8, -0.8, -0.0, 0.0, 0.0], [-0.8, 3.2, -0.8, 0.0, 0.0, -0.0], [-0.8, -0.8, 3.2, -0.0, 0.0, 0.0], [-0.0, 0.0, -0.0, 7.9, 0.0, -0.0], [0.0, 0.0, 0.0, 0.0, 7.9, 0.0], [0.0, -0.0, 0.0, -0.0, 0.0, 7.9]], 'warnings': [], 'nsites': 4}",0.0
622,mp-9619,Th(FeP3)4,"{'Th': 1.0, 'Fe': 4.0, 'P': 12.0}",0.10105407099046922,5.778061583998849,,0.0
623,mp-983362,Hf2FeTc,"{'Hf': 2.0, 'Fe': 1.0, 'Tc': 1.0}",0.14350048358641462,12.882188712401327,,0.0
624,mp-1001606,LuFeC2,"{'Lu': 1.0, 'Fe': 1.0, 'C': 2.0}",0.1513576019046729,9.120135004224132,,0.0