,mp_id,Formula,Composition,IPF,Density,Elastic_Tensor,E_above_Hull
291,mp-5597,Ca(FeP)2,"{'Ca': 1.0, 'Fe': 2.0, 'P': 2.0}",0.1754508400779713,4.868177390439817,"{'G_Reuss': 71.0, 'G_VRH': 79.0, 'G_Voigt': 87.0, 'G_Voigt_Reuss_Hill': 79.0, 'K_Reuss': 72.0, 'K_VRH': 89.0, 'K_Voigt': 106.0, 'K_Voigt_Reuss_Hill': 89.0, 'elastic_anisotropy': 1.59, 'elastic_tensor': [[277.0, 73.0, 44.0, 0.0, 0.0, 0.0], [73.0, 277.0, 44.0, 0.0, 0.0, 0.0], [44.0, 44.0, 79.0, 0.0, 0.0, 0.0], [0.0, 0.0, 0.0, 78.0, 0.0, 0.0], [0.0, 0.0, 0.0, 0.0, 78.0, 0.0], [0.0, 0.0, 0.0, 0.0, 0.0, 120.0]], 'homogeneous_poisson': 0.16, 'poisson_ratio': 0.16, 'universal_anisotropy': 1.59, 'elastic_tensor_original': [[276.509199405551, 73.29486313897982, 43.04057056603785, 0.0, 0.0, 0.0], [73.29681523974165, 276.5026871493065, 43.03394189142313, 0.0, 0.0, 0.0], [44.53918596465463, 44.53918596465463, 78.99253829820789, 0.0, 0.0, 0.0], [0.004806546691152182, 0.005237400466027722, 0.0055417832939462265, 78.47169926988632, 0.0, 0.0], [0.0008740157240092801, 0.0009632390324679119, 0.0010782846039026047, 0.0, 78.47134195598946, 0.0], [-0.0008191704464478965, -0.0007930708192941214, -0.0010239939371238709, 0.0, 0.0, 119.61892454015604]], 'compliance_tensor': [[4.1, -0.8, -1.8, -0.0, 0.0, 0.0], [-0.8, 4.1, -1.8, 0.0, 0.0, 0.0], [-1.8, -1.8, 14.7, 0.0, 0.0, 0.0], [-0.0, 0.0, 0.0, 12.7, 0.0, 0.0], [0.0, 0.0, 0.0, 0.0, 12.7, 0.0], [0.0, 0.0, 0.0, 0.0, 0.0, 8.4]], 'warnings': [], 'nsites': 5}",0.0
292,mp-561511,FeAsS,"{'Fe': 1.0, 'As': 1.0, 'S': 1.0}",0.15310685391173323,6.221555948909835,"{'G_Reuss': 114.0, 'G_VRH': 117.0, 'G_Voigt': 120.0, 'G_Voigt_Reuss_Hill': 117.0, 'K_Reuss': 142.0, 'K_VRH': 143.0, 'K_Voigt': 143.0, 'K_Voigt_Reuss_Hill': 143.0, 'elastic_anisotropy': 0.28, 'elastic_tensor': [[309.0, 45.0, 59.0, 0.0, 23.0, 0.0], [45.0, 357.0, 55.0, 0.0, 17.0, 0.0], [59.0, 55.0, 305.0, 0.0, -14.0, 0.0], [0.0, 0.0, 0.0, 124.0, 0.0, 24.0], [23.0, 17.0, -14.0, 0.0, 98.0, 0.0], [0.0, 0.0, 0.0, 24.0, 0.0, 108.0]], 'homogeneous_poisson': 0.18, 'poisson_ratio': 0.18, 'universal_anisotropy': 0.28, 'elastic_tensor_original': [[356.7789999194319, 54.707827820872716, 45.034982269054964, 17.280798699740348, 0.0, 0.0], [55.81276596512111, 304.88146934482455, 59.56436188261548, -14.35555402304449, 0.0, 0.0], [45.245686068157326, 58.84770850764251, 308.94544729716233, 23.108431330084812, 0.0, 0.0], [17.30405684349488, -14.317990230937951, 22.83502715256232, 98.33737800066315, 0.0, 0.0], [0.0015890955270344799, 0.0015894987525684747, 0.0016103020069407326, 6.53634205471205e-05, 107.7819423605172, 23.837255009130732], [-0.005980053429271787, -0.005589697563463813, -0.005649334330201987, -5.023587073514795e-05, 24.13972433581283, 123.73993975164929]], 'compliance_tensor': [[3.5, -0.3, -0.7, 0.0, -0.9, 0.0], [-0.3, 2.9, -0.5, 0.0, -0.5, 0.0], [-0.7, -0.5, 3.5, 0.0, 0.8, 0.0], [0.0, 0.0, 0.0, 8.4, 0.0, -1.9], [-0.9, -0.5, 0.8, 0.0, 10.6, 0.0], [0.0, 0.0, 0.0, -1.9, 0.0, 9.7]], 'warnings': [], 'nsites': 12}",0.0
293,mp-567678,Y7FeI12,"{'Y': 7.0, 'Fe': 1.0, 'I': 12.0}",0.18202039259181735,4.773954696245334,,0.0
294,mp-571098,Lu(FeSi)2,"{'Lu': 1.0, 'Fe': 2.0, 'Si': 2.0}",0.14848844841558934,7.892055780811262,,0.0
295,mp-643092,U(GaFe)6,"{'U': 1.0, 'Ga': 6.0, 'Fe': 6.0}",0.16616243344138,8.915368988007554,,0.0
296,mp-680269,Er2Fe3Si5,"{'Er': 2.0, 'Fe': 3.0, 'Si': 5.0}",0.13951056206521367,7.354442410863219,,0.0
297,mp-705435,Fe2(MoO4)3,"{'Fe': 2.0, 'Mo': 3.0, 'O': 12.0}",0.3772708595794066,3.3207405774177325,,0.0
298,mp-757614,LiFeO2,"{'Li': 1.0, 'Fe': 1.0, 'O': 2.0}",0.5970621904382459,4.193926782560214,,0.0
299,mp-861976,PaGaFe2,"{'Pa': 1.0, 'Ga': 1.0, 'Fe': 2.0}",0.1916565608560218,11.1798890201012,,0.0
300,mp-862290,LiFeRh2,"{'Li': 1.0, 'Fe': 1.0, 'Rh': 2.0}",0.1741622516269664,8.524073952353506,"{'G_Reuss': 54.0, 'G_VRH': 60.0, 'G_Voigt': 67.0, 'G_Voigt_Reuss_Hill': 60.0, 'K_Reuss': 143.0, 'K_VRH': 143.0, 'K_Voigt': 143.0, 'K_Voigt_Reuss_Hill': 143.0, 'elastic_anisotropy': 1.19, 'elastic_tensor': [[188.0, 120.0, 120.0, 0.0, 0.0, 0.0], [120.0, 188.0, 120.0, 0.0, 0.0, 0.0], [120.0, 120.0, 188.0, 0.0, 0.0, 0.0], [0.0, 0.0, 0.0, 88.0, 0.0, 0.0], [0.0, 0.0, 0.0, 0.0, 88.0, 0.0], [0.0, 0.0, 0.0, 0.0, 0.0, 88.0]], 'homogeneous_poisson': 0.32, 'poisson_ratio': 0.32, 'universal_anisotropy': 1.19, 'elastic_tensor_original': [[192.25197861174686, 123.51295700353336, 123.51295700353336, 0.0, 0.0, 0.0], [116.90128940238793, 184.75156776580192, 116.90128940238793, 0.0, 0.0, 0.0], [120.58873824783929, 120.58873824783929, 187.43899754814927, 0.0, 0.0, 0.0], [-9.110647341824371e-05, -2.7099654167382403e-05, -1.962635005604444e-05, 88.27925966903875, 0.0, 0.0], [-0.00019154702495018862, -0.00019574369558326523, -0.00016192362957491118, 0.0, 88.27932555884995, 0.0], [-1.3099843672326998e-05, -4.129986130761434e-05, -2.7326474370424654e-05, 0.0, 0.0, 88.2791616652899]], 'compliance_tensor': [[10.6, -4.1, -4.1, -0.0, -0.0, 0.0], [-4.1, 10.6, -4.1, 0.0, 0.0, -0.0], [-4.1, -4.1, 10.6, -0.0, 0.0, 0.0], [-0.0, 0.0, -0.0, 11.3, -0.0, -0.0], [-0.0, 0.0, 0.0, -0.0, 11.3, -0.0], [0.0, -0.0, 0.0, -0.0, -0.0, 11.3]], 'warnings': [], 'nsites': 4}",0.0
301,mp-866141,TiFe2Si,"{'Ti': 1.0, 'Fe': 2.0, 'Si': 1.0}",0.18300581412782066,6.7581276538375015,"{'G_Reuss': 145.0, 'G_VRH': 146.0, 'G_Voigt': 146.0, 'G_Voigt_Reuss_Hill': 146.0, 'K_Reuss': 229.0, 'K_VRH': 229.0, 'K_Voigt': 229.0, 'K_Voigt_Reuss_Hill': 229.0, 'elastic_anisotropy': 0.01, 'elastic_tensor': [[436.0, 125.0, 125.0, 0.0, 0.0, 0.0], [125.0, 436.0, 125.0, 0.0, 0.0, 0.0], [125.0, 125.0, 436.0, 0.0, 0.0, 0.0], [0.0, 0.0, 0.0, 139.0, 0.0, 0.0], [0.0, 0.0, 0.0, 0.0, 139.0, 0.0], [0.0, 0.0, 0.0, 0.0, 0.0, 139.0]], 'homogeneous_poisson': 0.24, 'poisson_ratio': 0.24, 'universal_anisotropy': 0.01, 'elastic_tensor_original': [[436.84145050485057, 125.49815252105002, 125.50031178394389, 7.39949437037553e-05, -0.00021623920054057795, 0.00021769555828939812], [124.05687247241603, 435.4908478174638, 124.05316619666873, 0.00010316120047899801, -0.00038424670228124496, -0.0003008766896343684], [125.569584862133, 125.5688299220354, 436.92064732648606, 1.587995086648192e-05, -2.8966945550416766e-05, -0.00047647832474253035], [0.00957120639248038, 0.009514872732298838, 0.009523107532419535, 139.34718226957588, 0.0, 0.0], [0.0006594095419283888, 0.0006951263138347804, 0.0006713993668114064, 0.0, 139.3471677730494, 0.0], [-0.012693462799430105, -0.0050543246633695865, 0.004266627709770056, 0.0, 0.0, 139.34926752764952]], 'compliance_tensor': [[2.6, -0.6, -0.6, -0.0, 0.0, 0.0], [-0.6, 2.6, -0.6, 0.0, -0.0, 0.0], [-0.6, -0.6, 2.6, 0.0, 0.0, -0.0], [-0.0, 0.0, 0.0, 7.2, 0.0, 0.0], [0.0, -0.0, 0.0, 0.0, 7.2, 0.0], [0.0, 0.0, -0.0, 0.0, 0.0, 7.2]], 'warnings': [], 'nsites': 4}",0.0
302,mp-972235,Tb3FeB7,"{'Tb': 3.0, 'Fe': 1.0, 'B': 7.0}",0.13021984954833538,7.972889614469024,,0.0
303,mp-975359,Rb(FeAs)2,"{'Rb': 1.0, 'Fe': 2.0, 'As': 2.0}",0.2617425348093682,5.636024950204424,"{'G_Reuss': 24.0, 'G_VRH': 26.0, 'G_Voigt': 28.0, 'G_Voigt_Reuss_Hill': 26.0, 'K_Reuss': 45.0, 'K_VRH': 49.0, 'K_Voigt': 52.0, 'K_Voigt_Reuss_Hill': 49.0, 'elastic_anisotropy': 1.0, 'elastic_tensor': [[91.0, 50.0, 35.0, 0.0, 0.0, 0.0], [50.0, 91.0, 35.0, 0.0, 0.0, 0.0], [35.0, 35.0, 50.0, 0.0, 0.0, 0.0], [0.0, 0.0, 0.0, 29.0, 0.0, 0.0], [0.0, 0.0, 0.0, 0.0, 29.0, 0.0], [0.0, 0.0, 0.0, 0.0, 0.0, 46.0]], 'homogeneous_poisson': 0.27, 'poisson_ratio': 0.27, 'universal_anisotropy': 1.0, 'elastic_tensor_original': [[91.33963398347619, 50.49065419334411, 23.22264564886753, 0.0, 0.0, 0.0], [50.490654193344085, 91.33963398347619, 23.22264564886752, 0.0, 0.0, 0.0], [45.998310688309395, 45.998310688309395, 50.044268145942986, 0.0, 0.0, 0.0], [0.0, 0.0, 0.0, 28.88120589093511, 0.0, 0.0], [0.0, 0.0, 0.0, 0.0, 28.88120589093511, 0.0], [0.4559279315183911, -0.4559279315183985, 0.0, 0.0, 0.0, 45.59068884384801]], 'compliance_tensor': [[17.6, -6.9, -7.4, 0.0, 0.0, 0.0], [-6.9, 17.6, -7.4, -0.0, -0.0, 0.0], [-7.4, -7.4, 30.2, -0.0, 0.0, -0.0], [0.0, -0.0, -0.0, 34.6, 0.0, 0.0], [0.0, -0.0, 0.0, 0.0, 34.6, -0.0], [0.0, 0.0, -0.0, 0.0, -0.0, 21.9]], 'warnings': [], 'nsites': 5}",0.0
304,mp-983358,HfAlFe2,"{'Hf': 1.0, 'Al': 1.0, 'Fe': 2.0}",0.16546743070198322,9.628102428037316,"{'G_Reuss': 91.0, 'G_VRH': 91.0, 'G_Voigt': 91.0, 'G_Voigt_Reuss_Hill': 91.0, 'K_Reuss': 166.0, 'K_VRH': 166.0, 'K_Voigt': 166.0, 'K_Voigt_Reuss_Hill': 166.0, 'elastic_anisotropy': 0.01, 'elastic_tensor': [[279.0, 109.0, 109.0, 0.0, -0.0, -0.0], [109.0, 279.0, 109.0, -0.0, 0.0, -0.0], [109.0, 109.0, 279.0, -0.0, -0.0, 0.0], [0.0, -0.0, -0.0, 94.0, 0.0, 0.0], [-0.0, 0.0, -0.0, 0.0, 94.0, 0.0], [-0.0, -0.0, 0.0, 0.0, 0.0, 94.0]], 'homogeneous_poisson': 0.27, 'poisson_ratio': 0.27, 'universal_anisotropy': 0.01, 'elastic_tensor_original': [[279.10114815545853, 108.30771668597622, 108.54957708408084, 1.1480437106801664, -1.4376043250783654, -1.4468074966967306], [108.7796818618218, 279.0443002585347, 108.56769947386998, -1.429062049670759, 1.0056812638162416, -1.3578640628402088], [109.03493165526028, 108.74105533711075, 279.51336359341235, -1.427999672460165, -1.4351960843478306, 1.0665091217290916], [-2.0935891308574646, -1.7926664387015698, -2.410182395999017, 94.30445400937334, 0.1723256541198634, 0.3294639317753922], [-2.268292184279655, -2.290854283239931, -2.269782853042113, 0.29791609190975454, 94.62437804842202, 0.1692243099391912], [5.348398503035945, 3.3476358697875126, 4.3843922006296685, 0.14932345748917966, 0.29436972131457173, 94.56206625980396]], 'compliance_tensor': [[4.6, -1.3, -1.3, -0.0, 0.0, 0.0], [-1.3, 4.6, -1.3, 0.0, -0.0, 0.0], [-1.3, -1.3, 4.6, 0.0, 0.0, -0.0], [-0.0, 0.0, 0.0, 10.6, 0.0, 0.0], [0.0, -0.0, 0.0, 0.0, 10.6, 0.0], [0.0, 0.0, -0.0, 0.0, 0.0, 10.6]], 'warnings': [], 'nsites': 4}",0.0
305,mp-999122,TbFeC2,"{'Tb': 1.0, 'Fe': 1.0, 'C': 2.0}",0.13693807057349566,8.006370127222512,,0.0
306,mp-1018064,ErFeC2,"{'Er': 1.0, 'Fe': 1.0, 'C': 2.0}",0.1550753307522886,8.601206671224142,,0.0
307,mp-1021509,Ce(FeAs3)4,"{'Ce': 1.0, 'Fe': 4.0, 'As': 12.0}",0.10454348042380555,7.279568115669741,,0.0
308,mp-1029659,Ca3FeN3,"{'Ca': 3.0, 'Fe': 1.0, 'N': 3.0}",0.2166933250015826,3.2222557638279414,"{'G_Reuss': 46.0, 'G_VRH': 47.0, 'G_Voigt': 47.0, 'G_Voigt_Reuss_Hill': 47.0, 'K_Reuss': 76.0, 'K_VRH': 76.0, 'K_Voigt': 77.0, 'K_Voigt_Reuss_Hill': 76.0, 'elastic_anisotropy': 0.05, 'elastic_tensor': [[133.0, 39.0, 45.0, 0.0, 0.0, 0.0], [39.0, 133.0, 45.0, 0.0, 0.0, 0.0], [45.0, 45.0, 165.0, 0.0, 0.0, 0.0], [0.0, 0.0, 0.0, 44.0, 0.0, 0.0], [0.0, 0.0, 0.0, 0.0, 44.0, 0.0], [0.0, 0.0, 0.0, 0.0, 0.0, 47.0]], 'homogeneous_poisson': 0.25, 'poisson_ratio': 0.25, 'universal_anisotropy': 0.05, 'elastic_tensor_original': [[133.5360567369789, 39.2435403404784, 45.85381198383278, 0.0, 0.0, 0.05446874752919217], [38.481281120473525, 132.76210967630493, 45.8280712787758, 0.0, 0.0, 0.0658286902044955], [44.281221071436256, 44.281222351425924, 165.0411632013426, 0.0, 0.0, 1.0426160447236907e-06], [0.007500518188083459, 0.006527221934057051, 0.008287418203971993, 43.488405948040814, -0.008979004711278857, 0.0007948002452152575], [-0.053057795564864674, -0.07376188815276756, -0.003650424678874948, -0.0029374349326186265, 43.54086098683759, -0.01544598121582899], [0.2653279733842594, 0.1973130906633413, -0.2097448363546178, 0.0, 0.0, 46.02924692430693]], 'compliance_tensor': [[8.8, -2.0, -1.9, -0.0, -0.0, 0.0], [-2.0, 8.8, -1.9, -0.0, -0.0, 0.0], [-1.9, -1.9, 7.1, 0.0, 0.0, -0.0], [-0.0, 0.0, 0.0, 23.0, 0.0, 0.0], [-0.0, -0.0, 0.0, 0.0, 23.0, -0.0], [0.0, 0.0, -0.0, 0.0, -0.0, 21.5]], 'warnings': [], 'nsites': 14}",0.0
309,mp-1114496,Rb3FeF6,"{'Rb': 3.0, 'Fe': 1.0, 'F': 6.0}",0.34684118303185085,3.563804471221172,,0.0
310,mp-11201,Sc6FeSb2,"{'Sc': 6.0, 'Fe': 1.0, 'Sb': 2.0}",0.12497801840862041,4.7611336384527565,"{'G_Reuss': 45.0, 'G_VRH': 45.0, 'G_Voigt': 46.0, 'G_Voigt_Reuss_Hill': 45.0, 'K_Reuss': 72.0, 'K_VRH': 72.0, 'K_Voigt': 72.0, 'K_Voigt_Reuss_Hill': 72.0, 'elastic_anisotropy': 0.19, 'elastic_tensor': [[132.0, 45.0, 47.0, 0.0, 0.0, 0.0], [45.0, 132.0, 47.0, 0.0, 0.0, 0.0], [47.0, 47.0, 107.0, 0.0, 0.0, 0.0], [0.0, 0.0, 0.0, 55.0, 0.0, 0.0], [0.0, 0.0, 0.0, 0.0, 55.0, 0.0], [0.0, 0.0, 0.0, 0.0, 0.0, 43.0]], 'homogeneous_poisson': 0.24, 'poisson_ratio': 0.24, 'universal_anisotropy': 0.19, 'elastic_tensor_original': [[132.20720262103163, 44.55228310453044, 46.94998992779433, 0.0, 0.0, 3.040370325632544e-06], [45.12400093472453, 133.4482895740728, 47.65321617168724, 0.0, 0.0, 2.0097928066286555e-05], [47.06654977736064, 47.06654419803079, 106.76234504786486, 0.0, 0.0, 7.0990249187581895e-06], [0.0002242799906791499, 0.0004149898559996238, 0.00010254666211503598, 55.075081825704814, 8.299997038230814e-06, 0.0], [7.70367605841901e-05, 0.00021099989612634911, 0.00022404990578761409, 9.999993019437379e-08, 55.029549540243615, 0.0], [-0.020416422273667197, -0.026406296047647763, -0.03399678761571115, 0.0, 0.0, 42.961895902613975]], 'compliance_tensor': [[9.4, -2.1, -3.3, -0.0, 0.0, -0.0], [-2.1, 9.4, -3.3, 0.0, -0.0, -0.0], [-3.3, -3.3, 12.2, 0.0, 0.0, 0.0], [-0.0, -0.0, 0.0, 18.2, -0.0, -0.0], [-0.0, 0.0, 0.0, -0.0, 18.2, -0.0], [-0.0, -0.0, 0.0, -0.0, 0.0, 23.0]], 'warnings': [], 'nsites': 9}",0.0
311,mp-11438,Sc(GaFe)6,"{'Sc': 1.0, 'Ga': 6.0, 'Fe': 6.0}",0.16302198755991248,7.324289564696141,,0.0
312,mp-1187977,Zr2FeOs,"{'Zr': 2.0, 'Fe': 1.0, 'Os': 1.0}",0.13491207745787553,10.43411550371192,,0.0
313,mp-1188542,Sr(FeSb3)4,"{'Sr': 1.0, 'Fe': 4.0, 'Sb': 12.0}",0.12437714923134963,7.506789794117359,,0.0
314,mp-1188789,Tb4Ga12Fe,"{'Tb': 4.0, 'Ga': 12.0, 'Fe': 1.0}",0.12667376388499774,7.936632755327901,,0.0
315,mp-1189647,Ba(FeSb3)4,"{'Ba': 1.0, 'Fe': 4.0, 'Sb': 12.0}",0.13400622235361365,7.65214807982581,,0.0
316,mp-1190642,Er2Fe12P7,"{'Er': 2.0, 'Fe': 12.0, 'P': 7.0}",0.17924518652300664,8.047860077562872,,0.0
317,mp-1190738,Dy2Fe17C3,"{'Dy': 2.0, 'Fe': 17.0, 'C': 3.0}",0.2102676300000096,8.086817820681551,,0.0
318,mp-1191346,Gd2Fe17C3,"{'Gd': 2.0, 'Fe': 17.0, 'C': 3.0}",0.202949260840961,7.984511295394436,,0.0
319,mp-1191863,Pr2Fe12P7,"{'Pr': 2.0, 'Fe': 12.0, 'P': 7.0}",0.1747097344615523,7.371410331602636,,0.0
320,mp-1201682,ScFeGe2,"{'Sc': 1.0, 'Fe': 1.0, 'Ge': 2.0}",0.14950015043731016,6.552361296895991,,0.0
321,mp-1204028,Sm6Fe13Bi,"{'Sm': 6.0, 'Fe': 13.0, 'Bi': 1.0}",0.22432299087106686,8.047406492060794,,0.0
322,mp-1205629,Cs3FeF6,"{'Cs': 3.0, 'Fe': 1.0, 'F': 6.0}",0.3873046582396799,4.255907543709275,,0.0
323,mp-1206002,Er6FeBi2,"{'Er': 6.0, 'Fe': 1.0, 'Bi': 2.0}",0.16171746465832337,10.082839019694454,,0.0
324,mp-1206123,AlFe3H,"{'Al': 1.0, 'Fe': 3.0, 'H': 1.0}",0.18168874130190601,6.501085427003184,,0.0
325,mp-1207125,Cs(FeP)2,"{'Cs': 1.0, 'Fe': 2.0, 'P': 2.0}",0.2984026563941897,4.833926357608933,,0.0
326,mp-12075,Tb(FeB)2,"{'Tb': 1.0, 'Fe': 2.0, 'B': 2.0}",0.15680959796955354,7.821976730972776,"{'G_Reuss': 72.0, 'G_VRH': 74.0, 'G_Voigt': 75.0, 'G_Voigt_Reuss_Hill': 74.0, 'K_Reuss': 123.0, 'K_VRH': 123.0, 'K_Voigt': 123.0, 'K_Voigt_Reuss_Hill': 123.0, 'elastic_anisotropy': 0.19, 'elastic_tensor': [[226.0, 66.0, 84.0, 0.0, 0.0, 0.0], [66.0, 226.0, 84.0, 0.0, 0.0, 0.0], [84.0, 84.0, 191.0, 0.0, 0.0, 0.0], [0.0, 0.0, 0.0, 69.0, 0.0, 0.0], [0.0, 0.0, 0.0, 0.0, 69.0, 0.0], [0.0, 0.0, 0.0, 0.0, 0.0, 101.0]], 'homogeneous_poisson': 0.25, 'poisson_ratio': 0.25, 'universal_anisotropy': 0.19, 'elastic_tensor_original': [[226.10265591846857, 66.03123153907183, 80.98959639904932, 0.0, 0.0, 0.0], [66.03123153907546, 226.10265591846857, 80.98959639904932, 0.0, -1.715353160930798e-05, 0.0], [86.31814334986169, 86.31814334986169, 190.6047456780215, 0.0, 0.0, 0.0], [0.0, -1.4649769067629584e-05, 0.0, 69.16823619875876, -7.16918258659539e-07, -7.324879810912571e-06], [-1.4649769067629584e-05, 0.0, 0.0, 7.16918258659757e-07, 69.16823619875876, -7.32488857239988e-06], [1.0071795927603227, -1.007179592760131, 0.0, 1.0000086308687604e-07, 0.0, 100.71382054030313]], 'compliance_tensor': [[5.4, -0.8, -2.0, -0.0, 0.0, 0.0], [-0.8, 5.4, -2.0, 0.0, -0.0, 0.0], [-2.0, -2.0, 7.0, 0.0, 0.0, 0.0], [-0.0, 0.0, 0.0, 14.5, 0.0, 0.0], [0.0, -0.0, 0.0, 0.0, 14.5, 0.0], [0.0, 0.0, 0.0, 0.0, 0.0, 9.9]], 'warnings': ['Contains a rare earth element'], 'nsites': 5}",0.0
327,mp-12076,Tm(FeB)2,"{'Tm': 1.0, 'Fe': 2.0, 'B': 2.0}",0.19764760962084554,8.803954316940345,,0.0
328,mp-1207634,YFeB4,"{'Y': 1.0, 'Fe': 1.0, 'B': 4.0}",0.14929842377528893,5.507913755987878,,0.0
329,mp-1211018,Lu12Fe2Pb3,"{'Lu': 12.0, 'Fe': 2.0, 'Pb': 3.0}",0.16386369915880264,10.504694437993093,,0.0
330,mp-1212880,Er3Fe2Si3,"{'Er': 3.0, 'Fe': 2.0, 'Si': 3.0}",0.14613611169900909,8.100794321363857,,0.0
331,mp-1215207,ZrScFe4,"{'Zr': 1.0, 'Sc': 1.0, 'Fe': 4.0}",0.18420818729132865,6.896148230206497,,0.0
332,mp-1215709,YZrFe4,"{'Y': 1.0, 'Zr': 1.0, 'Fe': 4.0}",0.19028048323001154,7.180078304566121,,0.0
333,mp-1216757,Tm(AlFe)6,"{'Tm': 1.0, 'Al': 6.0, 'Fe': 6.0}",0.15705906190046362,6.030028897983517,,0.0
334,mp-1217496,ThScFe6,"{'Th': 1.0, 'Sc': 1.0, 'Fe': 6.0}",0.19899790735305148,8.515410030212804,,0.0
335,mp-1219263,Sm6Al3Fe11,"{'Sm': 6.0, 'Al': 3.0, 'Fe': 11.0}",0.21137878961491785,7.0913732179293145,,0.0
336,mp-1219472,Sc(AlFe)6,"{'Sc': 1.0, 'Al': 6.0, 'Fe': 6.0}",0.14666352801077007,5.036530698267924,,0.0
337,mp-1221749,Mn3FeP4,"{'Mn': 3.0, 'Fe': 1.0, 'P': 4.0}",0.09374237250669686,6.089680572631969,,0.0
338,mp-1221780,Mn3FeAs4,"{'Mn': 3.0, 'Fe': 1.0, 'As': 4.0}",0.09550347976104112,7.614803892403968,,0.0
339,mp-1225227,Fe3Co3Si2,"{'Fe': 3.0, 'Co': 3.0, 'Si': 2.0}",0.16736491191068978,7.518412457171538,,0.0
340,mp-1226707,Cr12Fe3S20,"{'Cr': 12.0, 'Fe': 3.0, 'S': 20.0}",0.20913086708774853,4.666436339205109,,0.0
341,mp-1226839,Ce2AlFe3,"{'Ce': 2.0, 'Al': 1.0, 'Fe': 3.0}",0.19672524556973708,7.901587795242818,,0.0
342,mp-1278696,TiFeO3,"{'Ti': 1.0, 'Fe': 1.0, 'O': 3.0}",0.5533741562394663,4.597795157756451,,0.0
343,mp-12837,Er3FeSi3,"{'Er': 3.0, 'Fe': 1.0, 'Si': 3.0}",0.1362846838697315,7.935343600049933,,0.0
344,mp-14542,Y3FeB7,"{'Y': 3.0, 'Fe': 1.0, 'B': 7.0}",0.14962277179735756,5.276602769355199,,0.0
345,mp-16431,Nd(FeP3)4,"{'Nd': 1.0, 'Fe': 4.0, 'P': 12.0}",0.11522599526883585,5.152057953466749,,0.0
346,mp-16486,Ce(Al2Fe)4,"{'Ce': 1.0, 'Al': 8.0, 'Fe': 4.0}",0.13482593796576342,4.995733630748268,,0.0
347,mp-17435,Zr4Fe4Si7,"{'Zr': 4.0, 'Fe': 4.0, 'Si': 7.0}",0.11887092479058642,6.038801501997257,,0.0
348,mp-19035,BaFeO3,"{'Ba': 1.0, 'Fe': 1.0, 'O': 3.0}",0.6339850627730784,6.1048293795799236,"{'G_Reuss': 73.0, 'G_VRH': 75.0, 'G_Voigt': 76.0, 'G_Voigt_Reuss_Hill': 75.0, 'K_Reuss': 116.0, 'K_VRH': 116.0, 'K_Voigt': 116.0, 'K_Voigt_Reuss_Hill': 116.0, 'elastic_anisotropy': 0.18, 'elastic_tensor': [[195.0, 77.0, 77.0, 0.0, 0.0, 0.0], [77.0, 195.0, 77.0, 0.0, 0.0, 0.0], [77.0, 77.0, 195.0, 0.0, 0.0, 0.0], [0.0, 0.0, 0.0, 87.0, 0.0, 0.0], [0.0, 0.0, 0.0, 0.0, 87.0, 0.0], [0.0, 0.0, 0.0, 0.0, 0.0, 87.0]], 'homogeneous_poisson': 0.24, 'poisson_ratio': 0.24, 'universal_anisotropy': 0.18, 'elastic_tensor_original': [[194.96100384917895, 76.93250305964273, 76.93250305964273, 0.0, 0.0, 0.0], [76.61304097125908, 194.01694831622274, 76.61304097125908, 0.0, 0.0, 0.0], [76.75735533022814, 76.75735533022814, 195.9320934905285, 0.0, 0.0, 0.0], [0.3250200785899106, 1.2604232202354795, 0.34585619773231197, 87.0539241950402, 0.0, 0.0], [1.2601225513221217, 0.32472298652730575, 0.34553240888672443, 0.0, 87.05382302711911, 0.0], [-0.0003968301038262671, -0.0005275483735543154, -0.00046246676766173726, 0.0, 0.0, 87.03603227972904]], 'compliance_tensor': [[6.6, -1.9, -1.9, 0.0, 0.0, 0.0], [-1.9, 6.6, -1.9, -0.0, -0.0, 0.0], [-1.9, -1.9, 6.6, -0.0, -0.0, 0.0], [0.0, -0.0, -0.0, 11.5, 0.0, 0.0], [0.0, -0.0, -0.0, 0.0, 11.5, 0.0], [0.0, 0.0, 0.0, 0.0, 0.0, 11.5]], 'warnings': [], 'nsites': 5}",0.0
349,mp-19320,K2FeO4,"{'K': 2.0, 'Fe': 1.0, 'O': 4.0}",0.5383229560525437,2.701393611256047,,0.0