,mp_id,Formula,Composition,IPF,Density,Elastic_Tensor,E_above_Hull
229,mp-9437,NbFeSb,"{'Nb': 1.0, 'Fe': 1.0, 'Sb': 1.0}",0.13730043256093735,8.448733889055742,"{'G_Reuss': 79.0, 'G_VRH': 81.0, 'G_Voigt': 83.0, 'G_Voigt_Reuss_Hill': 81.0, 'K_Reuss': 166.0, 'K_VRH': 166.0, 'K_Voigt': 166.0, 'K_Voigt_Reuss_Hill': 166.0, 'elastic_anisotropy': 0.26, 'elastic_tensor': [[309.0, 95.0, 95.0, 0.0, 0.0, 0.0], [95.0, 309.0, 95.0, 0.0, 0.0, 0.0], [95.0, 95.0, 309.0, 0.0, 0.0, 0.0], [0.0, 0.0, 0.0, 67.0, 0.0, 0.0], [0.0, 0.0, 0.0, 0.0, 67.0, 0.0], [0.0, 0.0, 0.0, 0.0, 0.0, 67.0]], 'homogeneous_poisson': 0.29, 'poisson_ratio': 0.29, 'universal_anisotropy': 0.26, 'elastic_tensor_original': [[309.1861661936942, 94.52640896856974, 94.52640896856974, 0.0, 0.0, 0.0], [94.53840982652137, 309.1983874008615, 94.53840982652137, 0.0, 0.0, 0.0], [94.54070956205675, 94.54070956205675, 309.2007358752452, 0.0, 0.0, 0.0], [-0.02682873413003047, -0.02601551471211071, -0.025959691418734155, 67.42824493663169, 0.0, 0.0], [-0.0004344463557018346, -0.00044261301652206194, -0.0004350463552720504, 0.0, 67.42740930056316, 0.0], [-0.00030903644546710407, -0.00031010644470065926, -0.00031895643836724866, 0.0, 0.0, 67.42741592722508]], 'compliance_tensor': [[3.8, -0.9, -0.9, 0.0, 0.0, -0.0], [-0.9, 3.8, -0.9, 0.0, -0.0, 0.0], [-0.9, -0.9, 3.8, 0.0, -0.0, -0.0], [0.0, 0.0, 0.0, 14.8, 0.0, 0.0], [0.0, -0.0, -0.0, 0.0, 14.8, 0.0], [-0.0, 0.0, -0.0, 0.0, 0.0, 14.8]], 'warnings': [], 'nsites': 3}",0.0
230,mp-1006322,Ce(FeB)4,"{'Ce': 1.0, 'Fe': 4.0, 'B': 4.0}",0.17938874639793392,7.206671157555101,,0.0
231,mp-1018065,DyFeC2,"{'Dy': 1.0, 'Fe': 1.0, 'C': 2.0}",0.1820241048073633,8.248336486191427,,0.0
232,mp-1071505,Sr2FeO3,"{'Sr': 2.0, 'Fe': 1.0, 'O': 3.0}",0.5052633228723805,4.981899371698124,,0.0
233,mp-1078634,LaFeO3,"{'La': 1.0, 'Fe': 1.0, 'O': 3.0}",0.5543832697300687,6.481861561901277,,0.0
234,mp-1087511,UFeAs2,"{'U': 1.0, 'Fe': 1.0, 'As': 2.0}",0.1299780960293454,10.54317096234332,,0.0
235,mp-1095137,UFeC2,"{'U': 1.0, 'Fe': 1.0, 'C': 2.0}",0.15705708220057812,12.013415460093514,,0.0
236,mp-1102452,ZrFeSi,"{'Zr': 1.0, 'Fe': 1.0, 'Si': 1.0}",0.13195397986153848,6.483919522514203,,0.0
237,mp-1106187,Er7FeI12,"{'Er': 7.0, 'Fe': 1.0, 'I': 12.0}",0.18305692030025386,6.03835673834607,,0.0
238,mp-1178212,FeSnO3,"{'Fe': 1.0, 'Sn': 1.0, 'O': 3.0}",0.49313731224010826,6.049003629688497,,0.0
239,mp-1184276,FeTc2Ge,"{'Fe': 1.0, 'Tc': 2.0, 'Ge': 1.0}",0.1451207560907015,9.86635732001211,,0.0
240,mp-1189987,Dy4Ga12Fe,"{'Dy': 4.0, 'Ga': 12.0, 'Fe': 1.0}",0.15389112597125829,8.060800277119517,,0.0
241,mp-1190791,Dy2Fe12P7,"{'Dy': 2.0, 'Fe': 12.0, 'P': 7.0}",0.1901853874093592,7.950576371337374,,0.0
242,mp-1191833,Gd2Fe12P7,"{'Gd': 2.0, 'Fe': 12.0, 'P': 7.0}",0.18176047510905338,7.8104120110168,,0.0
243,mp-1192098,Dy3FeB7,"{'Dy': 3.0, 'Fe': 1.0, 'B': 7.0}",0.18228264480981818,8.219348416915112,,0.0
244,mp-1192262,Ho3FeB7,"{'Ho': 3.0, 'Fe': 1.0, 'B': 7.0}",0.15303604656548062,8.469410734775929,,0.0
245,mp-1193832,Zr9FeMo4,"{'Zr': 9.0, 'Fe': 1.0, 'Mo': 4.0}",0.1208691162992045,7.3608639251146295,,0.0
246,mp-1196326,Sm6Fe13Sn,"{'Sm': 6.0, 'Fe': 13.0, 'Sn': 1.0}",0.2209122427071668,7.740358356100817,,0.0
247,mp-1198610,Nb4FeTe4,"{'Nb': 4.0, 'Fe': 1.0, 'Te': 4.0}",0.199904506919105,6.475002056844571,,0.0
248,mp-1199147,K9Fe2O7,"{'K': 9.0, 'Fe': 2.0, 'O': 7.0}",0.5679395062921114,2.766112348728997,,0.0
249,mp-1200053,LuFe5P3,"{'Lu': 1.0, 'Fe': 5.0, 'P': 3.0}",0.17687367444500696,8.33969267185425,,0.0
250,mp-1206054,Er6FeSb2,"{'Er': 6.0, 'Fe': 1.0, 'Sb': 2.0}",0.14761381520262243,9.164481562154815,,0.0
251,mp-1208192,Tm12In2Fe3,"{'Tm': 12.0, 'In': 2.0, 'Fe': 3.0}",0.18627288587542132,9.287865124561552,,0.0
252,mp-1211520,KFeBr4,"{'K': 1.0, 'Fe': 1.0, 'Br': 4.0}",0.13336887466252598,3.185504606104214,,0.0
253,mp-1215319,ZrAlFe4,"{'Zr': 1.0, 'Al': 1.0, 'Fe': 4.0}",0.18494954173399825,7.319026235721804,,0.0
254,mp-1215517,Zr2MnFe3,"{'Zr': 2.0, 'Mn': 1.0, 'Fe': 3.0}",0.16123920593650404,7.605015366857881,,0.0
255,mp-1215554,Zr2FeCo3,"{'Zr': 2.0, 'Fe': 1.0, 'Co': 3.0}",0.15932116328640406,8.060749935672508,,0.0
256,mp-1216581,V2FeSi,"{'V': 2.0, 'Fe': 1.0, 'Si': 1.0}",0.1492255558877526,6.401810788132478,,0.0
257,mp-1221696,MnFePd6,"{'Mn': 1.0, 'Fe': 1.0, 'Pd': 6.0}",0.15723929339738904,10.314457552169921,,0.0
258,mp-1222470,LuAl7Fe5,"{'Lu': 1.0, 'Al': 7.0, 'Fe': 5.0}",0.14178462821202006,5.779773766920078,,0.0
259,mp-1222514,Lu(Fe5Si)2,"{'Lu': 1.0, 'Fe': 10.0, 'Si': 2.0}",0.19364515538819393,8.067217123318187,,0.0
260,mp-1224088,Ho(AlFe)6,"{'Ho': 1.0, 'Al': 6.0, 'Fe': 6.0}",0.15285442713362596,5.994447148342384,,0.0
261,mp-1224188,HfZrFe4,"{'Hf': 1.0, 'Zr': 1.0, 'Fe': 4.0}",0.18111222739866886,9.495397802348435,,0.0
262,mp-1224947,FeNiPt6,"{'Fe': 1.0, 'Ni': 1.0, 'Pt': 6.0}",0.14524319488093482,17.80858507767868,,0.0
263,mp-1224978,FeCo3S8,"{'Fe': 1.0, 'Co': 3.0, 'S': 8.0}",0.18840657979862124,4.915891866040019,,0.0
264,mp-1227272,Be4AlFe,"{'Be': 4.0, 'Al': 1.0, 'Fe': 1.0}",0.13582494352051264,3.660458071157819,,0.0
265,mp-1228910,Al2FeNi,"{'Al': 2.0, 'Fe': 1.0, 'Ni': 1.0}",0.14506969568034586,5.909211019398262,,0.0
266,mp-1246856,Ca3Fe3N5,"{'Ca': 3.0, 'Fe': 3.0, 'N': 5.0}",0.2278581085477088,4.278755350739169,,0.0
267,mp-16272,Ce(FeP3)4,"{'Ce': 1.0, 'Fe': 4.0, 'P': 12.0}",0.1017619091914366,5.171877804843587,"{'G_Reuss': 132.0, 'G_VRH': 132.0, 'G_Voigt': 132.0, 'G_Voigt_Reuss_Hill': 132.0, 'K_Reuss': 161.0, 'K_VRH': 161.0, 'K_Voigt': 161.0, 'K_Voigt_Reuss_Hill': 161.0, 'elastic_anisotropy': 0.02, 'elastic_tensor': [[351.0, 66.0, 66.0, 0.0, 0.0, 0.0], [66.0, 351.0, 66.0, 0.0, 0.0, 0.0], [66.0, 66.0, 351.0, 0.0, 0.0, 0.0], [0.0, 0.0, 0.0, 126.0, 0.0, 0.0], [0.0, 0.0, 0.0, 0.0, 126.0, 0.0], [0.0, 0.0, 0.0, 0.0, 0.0, 126.0]], 'homogeneous_poisson': 0.18, 'poisson_ratio': 0.18, 'universal_anisotropy': 0.02, 'elastic_tensor_original': [[350.8523314462295, 66.65600022366704, 65.76287320148838, 0.0, 0.0, 0.0], [65.13631739708494, 349.924949148719, 65.97010329387379, -0.002510557106245793, 0.0001088857687763385, -0.0034673474086483573], [66.91722527406414, 65.99208997853088, 351.08967811823004, -6.79716938763779e-05, -0.00034190981775290683, -0.0005265731001919072], [0.1695396441873047, 0.16888187016523362, 0.16943743741361939, 125.55173489201978, 0.0, 0.0], [0.021425922434538523, 0.02241837347370786, 0.0186845762308099, 0.0, 125.69027331374649, 0.0], [0.000316770331683305, 0.00041321376599855365, 0.0003251436737838951, 0.0, 0.0, 125.5519742422704]], 'compliance_tensor': [[3.0, -0.5, -0.5, -0.0, -0.0, 0.0], [-0.5, 3.0, -0.5, 0.0, -0.0, -0.0], [-0.5, -0.5, 3.0, -0.0, 0.0, -0.0], [-0.0, 0.0, -0.0, 8.0, -0.0, 0.0], [-0.0, -0.0, 0.0, -0.0, 8.0, -0.0], [0.0, -0.0, -0.0, 0.0, -0.0, 8.0]], 'warnings': ['Contains a rare earth element'], 'nsites': 17}",0.0
268,mp-19115,CaFeO3,"{'Ca': 1.0, 'Fe': 1.0, 'O': 3.0}",0.6056846149620874,4.265079553650974,,0.0
269,mp-19254,FeSO4,"{'Fe': 1.0, 'S': 1.0, 'O': 4.0}",0.5233903074654787,3.3881631429515644,,0.0
270,mp-20264,Tb(FeGe)2,"{'Tb': 1.0, 'Fe': 2.0, 'Ge': 2.0}",0.1551467973643434,8.25747349881494,,0.0
271,mp-21041,Tb(FeP3)4,"{'Tb': 1.0, 'Fe': 4.0, 'P': 12.0}",0.0963960433015701,5.315761679589928,,0.3495806617612729
272,mp-21141,Fe2CuGe2,"{'Fe': 2.0, 'Cu': 1.0, 'Ge': 2.0}",0.16984691256283047,7.982389200859105,"{'G_Reuss': 56.0, 'G_VRH': 62.0, 'G_Voigt': 67.0, 'G_Voigt_Reuss_Hill': 62.0, 'K_Reuss': 127.0, 'K_VRH': 129.0, 'K_Voigt': 131.0, 'K_Voigt_Reuss_Hill': 129.0, 'elastic_anisotropy': 0.98, 'elastic_tensor': [[280.0, 82.0, 58.0, 0.0, 0.0, 0.0], [82.0, 260.0, 80.0, 0.0, 0.0, 0.0], [58.0, 80.0, 195.0, 0.0, 0.0, 0.0], [0.0, 0.0, 0.0, 62.0, 0.0, 0.0], [0.0, 0.0, 0.0, 0.0, 72.0, 0.0], [0.0, 0.0, 0.0, 0.0, 0.0, 29.0]], 'homogeneous_poisson': 0.29, 'poisson_ratio': 0.29, 'universal_anisotropy': 0.98, 'elastic_tensor_original': [[195.28317085510955, 57.168113193428056, 80.58256719200253, 0.0, 0.0, 0.0], [59.3736157593541, 279.65400184623894, 82.81590768026692, 0.0, 0.0, 0.0], [79.94274332835285, 81.82227846410736, 260.35851582333044, 0.0, 0.0, 0.0], [-0.0003567272438889521, -0.0003089171665246176, -0.000268903768444342, 28.704122169371352, 0.0, 0.0], [0.0012778022755351385, 0.0027135777536230793, 0.0028094010076307845, 0.0, 62.25211686591544, 0.0], [1.2499991127296262e-06, -2.3333316657826247e-07, 4.506663455165131e-06, 0.0, 0.0, 71.84247656970926]], 'compliance_tensor': [[4.0, -1.0, -0.8, 0.0, 0.0, 0.0], [-1.0, 4.7, -1.6, 0.0, -0.0, 0.0], [-0.8, -1.6, 6.0, 0.0, -0.0, 0.0], [0.0, 0.0, 0.0, 16.1, 0.0, 0.0], [0.0, -0.0, -0.0, 0.0, 13.9, 0.0], [0.0, 0.0, 0.0, 0.0, 0.0, 34.8]], 'warnings': [], 'nsites': 10}",0.7931206666675905
273,mp-21357,U2Fe2Sn,"{'U': 2.0, 'Fe': 2.0, 'Sn': 1.0}",0.17735038150152535,13.213631203152715,,0.0
274,mp-21471,LiFeAs,"{'Li': 1.0, 'Fe': 1.0, 'As': 1.0}",0.15618313575265286,5.211400407134746,"{'G_Reuss': 39.0, 'G_VRH': 40.0, 'G_Voigt': 42.0, 'G_Voigt_Reuss_Hill': 40.0, 'K_Reuss': 67.0, 'K_VRH': 68.0, 'K_Voigt': 69.0, 'K_Voigt_Reuss_Hill': 68.0, 'elastic_anisotropy': 0.49, 'elastic_tensor': [[151.0, 37.0, 36.0, 0.0, 0.0, 0.0], [37.0, 151.0, 36.0, 0.0, 0.0, 0.0], [36.0, 36.0, 101.0, 0.0, 0.0, 0.0], [0.0, 0.0, 0.0, 29.0, 0.0, 0.0], [0.0, 0.0, 0.0, 0.0, 29.0, 0.0], [0.0, 0.0, 0.0, 0.0, 0.0, 54.0]], 'homogeneous_poisson': 0.25, 'poisson_ratio': 0.25, 'universal_anisotropy': 0.49, 'elastic_tensor_original': [[151.230226727116, 37.10942150685787, 37.28916886411226, 0.0, 0.0, 0.0], [37.11023722927039, 151.23029500902285, 37.29065872111661, 0.0, 0.0, 0.0], [34.24334078869841, 34.24334078869841, 100.81274689573117, 0.0, 0.0, 0.0], [0.00023010293860404183, 0.0003389294185846443, 0.0003951526554697115, 29.27606160181068, 0.0, 0.0], [8.620651878397744e-05, 0.00012039979346060371, -4.27499266651672e-05, 0.0, 29.275990158599896, 0.0], [0.00019870630339834425, 0.00012708643433149112, 0.0001227964421738692, 0.0, 0.0, 53.50425133198378]], 'compliance_tensor': [[7.4, -1.3, -2.2, 0.0, 0.0, 0.0], [-1.3, 7.4, -2.2, 0.0, 0.0, 0.0], [-2.2, -2.2, 11.5, 0.0, 0.0, 0.0], [0.0, 0.0, 0.0, 34.2, 0.0, 0.0], [0.0, 0.0, 0.0, 0.0, 34.2, 0.0], [0.0, 0.0, 0.0, 0.0, 0.0, 18.7]], 'warnings': [], 'nsites': 6}",0.0
275,mp-21623,ThFe5P3,"{'Th': 1.0, 'Fe': 5.0, 'P': 3.0}",0.1760141259683902,8.680444445887167,,0.0
276,mp-21902,Th2FeB10,"{'Th': 2.0, 'Fe': 1.0, 'B': 10.0}",0.12114525326099279,7.878692364446392,,0.0
277,mp-27904,FeSbS,"{'Fe': 1.0, 'Sb': 1.0, 'S': 1.0}",0.15666462674286738,6.9529961174769515,"{'G_Reuss': 94.0, 'G_VRH': 97.0, 'G_Voigt': 100.0, 'G_Voigt_Reuss_Hill': 97.0, 'K_Reuss': 110.0, 'K_VRH': 112.0, 'K_Voigt': 113.0, 'K_Voigt_Reuss_Hill': 112.0, 'elastic_anisotropy': 0.31, 'elastic_tensor': [[239.0, 34.0, 32.0, 0.0, -18.0, 0.0], [34.0, 276.0, 56.0, 0.0, -24.0, 0.0], [32.0, 56.0, 256.0, 0.0, 8.0, 0.0], [0.0, 0.0, 0.0, 108.0, 0.0, -23.0], [-18.0, -24.0, 8.0, 0.0, 81.0, 0.0], [0.0, 0.0, 0.0, -23.0, 0.0, 92.0]], 'homogeneous_poisson': 0.16, 'poisson_ratio': 0.16, 'universal_anisotropy': 0.31, 'elastic_tensor_original': [[238.81220495009157, 33.41799089878654, 34.35914356333895, 0.0, -15.588566667647715, 0.0], [34.417910123670154, 276.49761816426405, 56.484693538162446, 0.0, -24.25802841060023, 0.0], [30.494875150243985, 56.29805075576664, 255.99299507891885, 0.0, 7.688657908059025, 0.0], [0.0, 0.0, 0.0, 108.10272403539398, 0.0, -22.140431564274614], [-20.712235209319523, -23.39689942806539, 8.75993096957436, 0.0, 81.04227799320863, 0.0], [0.0, 0.0, 0.0, -23.098055744765663, 0.0, 92.30772107891019]], 'compliance_tensor': [[4.377084634027803, -0.3535810248142813, -0.5065009995390176, 0.0, 0.9279948551000837, 0.0], [-0.3535810248142814, 3.9357879133801705, -0.8597521118607422, 0.0, 1.1650785446840057, 0.0], [-0.5065009995390175, -0.8597521118607422, 4.185436734975202, 0.0, -0.7912573740907796, 0.0], [0.0, 0.0, 0.0, 9.74985649860111, 0.0, 2.3890667415777127], [0.9279948551000842, 1.1650785446840057, -0.7912573740907798, 0.0, 12.969075013075592, 0.0], [0.0, 0.0, 0.0, 2.3890667415777127, 0.0, 11.419323428736684]], 'warnings': [], 'nsites': 12}",0.0
278,mp-28628,Li3FeN2,"{'Li': 3.0, 'Fe': 1.0, 'N': 2.0}",0.25993535225782044,3.262170363940515,,0.0
279,mp-28884,Cs(FeAs)2,"{'Cs': 1.0, 'Fe': 2.0, 'As': 2.0}",0.291217460302899,5.880310923396109,"{'G_Reuss': 26.0, 'G_VRH': 26.0, 'G_Voigt': 27.0, 'G_Voigt_Reuss_Hill': 26.0, 'K_Reuss': 44.0, 'K_VRH': 44.0, 'K_Voigt': 44.0, 'K_Voigt_Reuss_Hill': 44.0, 'elastic_anisotropy': 0.18, 'elastic_tensor': [[79.0, 28.0, 29.0, 0.0, 0.0, 0.0], [28.0, 79.0, 29.0, 0.0, 0.0, 0.0], [29.0, 29.0, 64.0, 0.0, 0.0, 0.0], [0.0, 0.0, 0.0, 27.0, 0.0, 0.0], [0.0, 0.0, 0.0, 0.0, 27.0, 0.0], [0.0, 0.0, 0.0, 0.0, 0.0, 34.0]], 'homogeneous_poisson': 0.25, 'poisson_ratio': 0.25, 'universal_anisotropy': 0.18, 'elastic_tensor_original': [[79.30926566812597, 28.345390696074162, 29.990289427734385, 0.0, 0.0, 0.0], [28.34543666485693, 79.30932076468463, 29.990381939171627, 0.0, 0.0, 0.0], [28.452696511658356, 28.452696511658356, 63.641833432852195, 0.0, 0.0, 0.0], [-0.00023141662189644292, -0.00011263338033891697, -0.00020963336164772598, 27.18052549104198, 0.0, 0.0], [-0.00023227673842929014, -0.0003852066396425396, -0.00037746337296725227, 0.0, 27.180547057706775, 0.0], [-0.08838712591813752, -0.09583204251346922, -0.1155494956780711, 0.0, 0.0, 34.358891958797464]], 'compliance_tensor': [[16.0, -3.6, -5.7, -0.0, 0.0, 0.0], [-3.6, 16.0, -5.7, -0.0, 0.0, 0.0], [-5.7, -5.7, 20.9, 0.0, -0.0, -0.0], [-0.0, -0.0, 0.0, 36.8, -0.0, -0.0], [0.0, 0.0, -0.0, -0.0, 36.8, 0.0], [0.0, 0.0, -0.0, -0.0, 0.0, 29.1]], 'warnings': [], 'nsites': 5}",0.0
280,mp-2938,Tm(FeSi)2,"{'Tm': 1.0, 'Fe': 2.0, 'Si': 2.0}",0.16360201892557402,7.618867415474387,,0.0
281,mp-30084,Al2FeO4,"{'Al': 2.0, 'Fe': 1.0, 'O': 4.0}",0.551707891726768,4.115686702713039,,0.0
282,mp-31187,TiAlFe2,"{'Ti': 1.0, 'Al': 1.0, 'Fe': 2.0}",0.18302227726688025,6.253070135591179,"{'G_Reuss': 104.0, 'G_VRH': 105.0, 'G_Voigt': 106.0, 'G_Voigt_Reuss_Hill': 105.0, 'K_Reuss': 185.0, 'K_VRH': 185.0, 'K_Voigt': 185.0, 'K_Voigt_Reuss_Hill': 185.0, 'elastic_anisotropy': 0.07, 'elastic_tensor': [[305.0, 124.0, 124.0, 0.0, 0.0, 0.0], [124.0, 305.0, 124.0, 0.0, 0.0, 0.0], [124.0, 124.0, 305.0, 0.0, 0.0, 0.0], [0.0, 0.0, 0.0, 116.0, 0.0, 0.0], [0.0, 0.0, 0.0, 0.0, 116.0, 0.0], [0.0, 0.0, 0.0, 0.0, 0.0, 116.0]], 'homogeneous_poisson': 0.26, 'poisson_ratio': 0.26, 'universal_anisotropy': 0.07, 'elastic_tensor_original': [[305.6764317938382, 124.83535001138166, 124.83947335011408, -0.003148904203678146, -0.0007352890244137145, -0.0029255209287972557], [124.1058814163542, 304.9889775047714, 124.10690516102855, -0.00021329016540111223, -8.170308554329121e-05, 3.578895894350303e-05], [123.85921309827516, 123.86230927429524, 304.7543893814507, 0.00020160111046326216, -0.00035069169797244333, -0.0009441869213262997], [-0.0008067994771897778, -0.0008090469726737943, -0.0002319605611666921, 115.87297124633659, 0.0, 0.0], [-2.7203111733490465e-05, -0.00015760628136877026, -0.00034627555976133657, 0.0, 115.87222252412985, 0.0], [-1.631761214538559e-05, -0.0006324604152548398, -0.00024501077065338127, 0.0, 0.0, 115.87342766784906]], 'compliance_tensor': [[4.3, -1.2, -1.2, 0.0, -0.0, -0.0], [-1.2, 4.3, -1.2, -0.0, -0.0, -0.0], [-1.2, -1.2, 4.3, -0.0, -0.0, -0.0], [0.0, -0.0, -0.0, 8.6, 0.0, 0.0], [-0.0, -0.0, -0.0, 0.0, 8.6, 0.0], [-0.0, -0.0, -0.0, 0.0, 0.0, 8.6]], 'warnings': [], 'nsites': 4}",0.0
283,mp-31512,Rb7(FeO4)2,"{'Rb': 7.0, 'Fe': 2.0, 'O': 8.0}",0.5652044206631771,3.811320034211773,,0.0
284,mp-35596,Fe2NiO4,"{'Fe': 2.0, 'Ni': 1.0, 'O': 4.0}",0.5368160887303283,5.170922398716076,,0.0
285,mp-3805,Al(FeB)2,"{'Al': 1.0, 'Fe': 2.0, 'B': 2.0}",0.15354113742872438,5.79199396598175,"{'G_Reuss': 127.0, 'G_VRH': 129.0, 'G_Voigt': 131.0, 'G_Voigt_Reuss_Hill': 129.0, 'K_Reuss': 199.0, 'K_VRH': 203.0, 'K_Voigt': 206.0, 'K_Voigt_Reuss_Hill': 203.0, 'elastic_anisotropy': 0.2, 'elastic_tensor': [[424.0, 149.0, 113.0, 0.0, 0.0, 0.0], [149.0, 370.0, 126.0, 0.0, 0.0, 0.0], [113.0, 126.0, 287.0, 0.0, 0.0, 0.0], [0.0, 0.0, 0.0, 129.0, 0.0, 0.0], [0.0, 0.0, 0.0, 0.0, 166.0, 0.0], [0.0, 0.0, 0.0, 0.0, 0.0, 130.0]], 'homogeneous_poisson': 0.24, 'poisson_ratio': 0.24, 'universal_anisotropy': 0.2, 'elastic_tensor_original': [[424.2727449725874, 153.35326517123872, 120.56719809066898, 0.0, 0.0, 0.0], [144.58424296162863, 369.7333256840453, 131.4688306856176, 0.0, 0.0, 0.0], [104.56900999565902, 121.1169937883187, 286.6503665841563, 0.0, 0.0, 0.0], [6.888328324767182e-05, 3.5636640754138146e-05, 9.816992861953915e-05, 129.2873297992203, 0.0, 0.0], [-0.00012483975701855585, -0.0001309930783728869, -9.072982340790473e-05, 0.0, 166.12327716324353, 0.0], [2.7576612314538643e-05, 5.8839884029137176e-05, 0.00011074978171501122, 0.0, 0.0, 130.32657562852555]], 'compliance_tensor': [[2.9, -0.9, -0.7, 0.0, 0.0, -0.0], [-0.9, 3.5, -1.2, 0.0, 0.0, -0.0], [-0.7, -1.2, 4.3, 0.0, 0.0, 0.0], [0.0, 0.0, 0.0, 7.7, 0.0, 0.0], [0.0, 0.0, 0.0, 0.0, 6.0, 0.0], [-0.0, -0.0, 0.0, 0.0, 0.0, 7.7]], 'warnings': [], 'nsites': 5}",0.0
286,mp-5399,Tb(FeSi)2,"{'Tb': 1.0, 'Fe': 2.0, 'Si': 2.0}",0.1389395877509802,7.200878266867101,"{'G_Reuss': 80.0, 'G_VRH': 82.0, 'G_Voigt': 83.0, 'G_Voigt_Reuss_Hill': 82.0, 'K_Reuss': 137.0, 'K_VRH': 137.0, 'K_Voigt': 138.0, 'K_Voigt_Reuss_Hill': 137.0, 'elastic_anisotropy': 0.2, 'elastic_tensor': [[245.0, 85.0, 95.0, 0.0, 0.0, 0.0], [85.0, 245.0, 95.0, 0.0, 0.0, 0.0], [95.0, 95.0, 197.0, 0.0, 0.0, 0.0], [0.0, 0.0, 0.0, 89.0, 0.0, 0.0], [0.0, 0.0, 0.0, 0.0, 89.0, 0.0], [0.0, 0.0, 0.0, 0.0, 0.0, 100.0]], 'homogeneous_poisson': 0.25, 'poisson_ratio': 0.25, 'universal_anisotropy': 0.2, 'elastic_tensor_original': [[245.12282619507806, 85.24687174004782, 95.5958120171612, 1.0000109652152432e-05, 0.0, 0.0], [85.24687174004778, 245.12282619507806, 95.5958120171612, 0.0, -9.799747844528365e-06, 0.0], [94.50070262926648, 94.50070262926648, 197.39928706710973, 2.059973362873595e-05, 2.059973362873595e-05, 0.0], [0.0, 1.863449449289276e-07, 0.0, 88.90849108013626, -5.943930914539186e-07, 9.31721249349335e-08], [1.8634494701059976e-07, 0.0, 0.0, 5.943930915230433e-07, 88.90849108013626, 9.31728385831609e-08], [1.0039095498041208, -1.0039095498041677, 0.0, 4.500013671776783e-07, -4.413789153566998e-07, 100.38634966642373]], 'compliance_tensor': [[5.2, -1.0, -2.0, 0.0, -0.0, 0.0], [-1.0, 5.2, -2.0, -0.0, 0.0, 0.0], [-2.0, -2.0, 7.0, -0.0, -0.0, 0.0], [0.0, -0.0, -0.0, 11.2, 0.0, -0.0], [-0.0, 0.0, -0.0, 0.0, 11.2, -0.0], [0.0, 0.0, 0.0, -0.0, -0.0, 10.0]], 'warnings': ['Contains a rare earth element'], 'nsites': 5}",0.0
287,mp-542120,Ba2FeO4,"{'Ba': 2.0, 'Fe': 1.0, 'O': 4.0}",0.5123159940540929,5.258274864838354,,0.0
288,mp-542996,Ta6Fe16Si7,"{'Ta': 6.0, 'Fe': 16.0, 'Si': 7.0}",0.1704423248391522,10.26388069445334,,0.0
289,mp-553913,Fe2PO5,"{'Fe': 2.0, 'P': 1.0, 'O': 5.0}",0.5151235452463321,3.985931926068834,,0.0
290,mp-554416,Ta4FeS8,"{'Ta': 4.0, 'Fe': 1.0, 'S': 8.0}",0.15508968772701257,7.696723792884066,,0.0