,mp_id,Formula,Composition,IPF,Density,Elastic_Tensor,E_above_Hull
433,mp-22793,AlFe3C,"{'Al': 1.0, 'Fe': 3.0, 'C': 1.0}",0.17341104708130356,6.473381427944479,"{'G_Reuss': 89.0, 'G_VRH': 98.0, 'G_Voigt': 106.0, 'G_Voigt_Reuss_Hill': 98.0, 'K_Reuss': 230.0, 'K_VRH': 230.0, 'K_Voigt': 230.0, 'K_Voigt_Reuss_Hill': 230.0, 'elastic_anisotropy': 0.97, 'elastic_tensor': [[447.0, 121.0, 121.0, 0.0, 0.0, 0.0], [121.0, 447.0, 121.0, 0.0, 0.0, 0.0], [121.0, 121.0, 447.0, 0.0, 0.0, 0.0], [0.0, 0.0, 0.0, 68.0, 0.0, 0.0], [0.0, 0.0, 0.0, 0.0, 68.0, 0.0], [0.0, 0.0, 0.0, 0.0, 0.0, 68.0]], 'homogeneous_poisson': 0.31, 'poisson_ratio': 0.31, 'universal_anisotropy': 0.97, 'elastic_tensor_original': [[447.3535863504671, 121.49362533446428, 121.49362533446428, 0.0, 0.0, 0.0], [121.4919698097837, 447.35209102129534, 121.4919698097837, 0.0, 0.0, 0.0], [121.49509482357352, 121.49509482357352, 447.3542567463704, 0.0, 0.0, 0.0], [-0.00010562731241242171, -0.00017488056707054846, -8.240177992235706e-06, 68.28507752533315, 0.0, 0.0], [-0.0001619930262408064, -3.2698444470800294e-06, 6.392356147706409e-05, 0.0, 68.28470880601458, 0.0], [-0.00011406067171082916, 0.0002865925137668615, 0.00033190637134318404, 0.0, 0.0, 68.28514312577123]], 'compliance_tensor': [[2.5, -0.5, -0.5, 0.0, -0.0, 0.0], [-0.5, 2.5, -0.5, 0.0, 0.0, 0.0], [-0.5, -0.5, 2.5, 0.0, -0.0, -0.0], [0.0, 0.0, 0.0, 14.6, 0.0, 0.0], [-0.0, 0.0, -0.0, 0.0, 14.6, 0.0], [0.0, 0.0, -0.0, 0.0, 0.0, 14.6]], 'warnings': [], 'nsites': 5}",0.0
434,mp-27463,Na5Fe3F14,"{'Na': 5.0, 'Fe': 3.0, 'F': 14.0}",0.19894823521767,2.9690878956482676,,0.0
435,mp-31185,MnAlFe2,"{'Mn': 1.0, 'Al': 1.0, 'Fe': 2.0}",0.1663795746323075,7.019572565285538,"{'G_Reuss': 114.0, 'G_VRH': 122.0, 'G_Voigt': 129.0, 'G_Voigt_Reuss_Hill': 122.0, 'K_Reuss': 196.0, 'K_VRH': 196.0, 'K_Voigt': 196.0, 'K_Voigt_Reuss_Hill': 196.0, 'elastic_anisotropy': 0.67, 'elastic_tensor': [[301.0, 144.0, 144.0, 0.0, 0.0, 0.0], [144.0, 301.0, 144.0, 0.0, 0.0, 0.0], [144.0, 144.0, 301.0, 0.0, 0.0, 0.0], [0.0, 0.0, 0.0, 163.0, 0.0, 0.0], [0.0, 0.0, 0.0, 0.0, 163.0, 0.0], [0.0, 0.0, 0.0, 0.0, 0.0, 163.0]], 'homogeneous_poisson': 0.24, 'poisson_ratio': 0.24, 'universal_anisotropy': 0.67, 'elastic_tensor_original': [[302.53402889741653, 145.35353058358785, 145.35353058358785, 0.0, 0.0, 0.0], [142.83667588227658, 299.9431416598968, 142.83667588227658, 0.0, 0.0, 0.0], [142.70660002378818, 142.70660002378818, 299.8803678057459, 0.0, 0.0, 0.0], [0.00017992383891387177, 0.0006450404362166703, 0.0002108897271409185, 162.7723164837979, 0.0, 0.0], [7.915342620392451e-05, -5.614042308588563e-05, -8.029638965067779e-05, 0.0, 162.77226467950524, 0.0], [-0.0009319896816249155, -0.0005988301639737708, -0.0009003092080740705, 0.0, 0.0, 162.77186883077735]], 'compliance_tensor': [[4.8, -1.6, -1.6, 0.0, -0.0, -0.0], [-1.6, 4.8, -1.6, -0.0, 0.0, -0.0], [-1.6, -1.6, 4.8, -0.0, -0.0, 0.0], [0.0, -0.0, -0.0, 6.1, -0.0, -0.0], [-0.0, 0.0, -0.0, -0.0, 6.1, -0.0], [-0.0, -0.0, 0.0, -0.0, -0.0, 6.1]], 'warnings': [], 'nsites': 4}",0.0
436,mp-3275,PrFeSi2,"{'Pr': 1.0, 'Fe': 1.0, 'Si': 2.0}",0.12536857802344115,5.913937844980611,,0.0
437,mp-35276,K(FeAs)2,"{'K': 1.0, 'Fe': 2.0, 'As': 2.0}",0.2216878073949489,4.960691079213242,,0.0
438,mp-3546,Tb(Al2Fe)4,"{'Tb': 1.0, 'Al': 8.0, 'Fe': 4.0}",0.12939451371610422,5.214461200766154,,0.0
439,mp-4189,Dy6FeSb2,"{'Dy': 6.0, 'Fe': 1.0, 'Sb': 2.0}",0.1801640555763463,8.715163774193382,"{'G_Reuss': 35.0, 'G_VRH': 35.0, 'G_Voigt': 36.0, 'G_Voigt_Reuss_Hill': 35.0, 'K_Reuss': 59.0, 'K_VRH': 60.0, 'K_Voigt': 60.0, 'K_Voigt_Reuss_Hill': 60.0, 'elastic_anisotropy': 0.24, 'elastic_tensor': [[108.0, 42.0, 40.0, 0.0, 0.0, 0.0], [42.0, 108.0, 40.0, 0.0, 0.0, 0.0], [40.0, 40.0, 84.0, 0.0, 0.0, 0.0], [0.0, 0.0, 0.0, 44.0, 0.0, 0.0], [0.0, 0.0, 0.0, 0.0, 44.0, 0.0], [0.0, 0.0, 0.0, 0.0, 0.0, 33.0]], 'homogeneous_poisson': 0.25, 'poisson_ratio': 0.25, 'universal_anisotropy': 0.24, 'elastic_tensor_original': [[107.39672561691685, 42.689504962048304, 42.180171563731676, 0.0, 0.0, 0.0], [42.91703158148026, 107.4730619444134, 42.45845726426011, 0.0, 0.0, 0.0], [37.721740299609664, 37.721739899614796, 83.66003883948788, 0.0, 0.0, 0.0], [0.0, 0.0, 0.0, 44.457323102823054, 0.0, 0.0], [0.0, 0.0, 0.0, 0.0, 44.2149998341705, 0.0], [4.68583946115211e-06, 0.0, 0.0, 0.0, 0.0, 33.38153837781906]], 'compliance_tensor': [[12.1, -3.1, -4.3, 0.0, 0.0, -0.0], [-3.1, 12.1, -4.3, 0.0, 0.0, -0.0], [-4.3, -4.3, 16.0, 0.0, 0.0, 0.0], [0.0, 0.0, 0.0, 22.6, -0.0, 0.0], [0.0, 0.0, 0.0, -0.0, 22.6, 0.0], [-0.0, -0.0, 0.0, 0.0, 0.0, 30.4]], 'warnings': ['Contains a rare earth element'], 'nsites': 9}",0.0
440,mp-4755,Sc3Fe2Si3,"{'Sc': 3.0, 'Fe': 2.0, 'Si': 3.0}",0.12569414034687418,4.348194104151931,,0.0
441,mp-510028,Nd2Fe12P7,"{'Nd': 2.0, 'Fe': 12.0, 'P': 7.0}",0.20514542466945088,7.491951072616642,,0.0
442,mp-510624,SrFeO3,"{'Sr': 1.0, 'Fe': 1.0, 'O': 3.0}",0.6235820148808287,5.3056988684625415,"{'G_Reuss': 83.0, 'G_VRH': 83.0, 'G_Voigt': 83.0, 'G_Voigt_Reuss_Hill': 83.0, 'K_Reuss': 131.0, 'K_VRH': 131.0, 'K_Voigt': 131.0, 'K_Voigt_Reuss_Hill': 131.0, 'elastic_anisotropy': 0.0, 'elastic_tensor': [[238.0, 78.0, 78.0, 0.0, 0.0, 0.0], [78.0, 238.0, 78.0, 0.0, 0.0, 0.0], [78.0, 78.0, 238.0, 0.0, 0.0, 0.0], [0.0, 0.0, 0.0, 86.0, 0.0, 0.0], [0.0, 0.0, 0.0, 0.0, 86.0, 0.0], [0.0, 0.0, 0.0, 0.0, 0.0, 86.0]], 'homogeneous_poisson': 0.24, 'poisson_ratio': 0.24, 'universal_anisotropy': 0.0, 'elastic_tensor_original': [[238.39786608604433, 77.86721682110043, 77.86721682110043, 0.0, 0.0, 0.0], [77.86448934158487, 238.3946987764249, 77.86448934158487, 0.0, 0.0, 0.0], [77.88085839531647, 77.88085839531647, 238.4096708795026, 0.0, 0.0, 0.0], [-0.00041829289506105756, -0.000315746335839112, -0.000371932943635546, 85.54242176175217, 0.0, 0.0], [-4.214662250671826e-05, -0.00010627655531384434, -4.786994984358239e-05, 0.0, 85.54260013156527, 0.0], [-0.0010055322797731666, -0.0011339088119316197, -0.0011537954577618662, 0.0, 0.0, 85.54263786819241]], 'compliance_tensor': [[5.0, -1.2, -1.2, 0.0, 0.0, -0.0], [-1.2, 5.0, -1.2, -0.0, 0.0, -0.0], [-1.2, -1.2, 5.0, -0.0, -0.0, -0.0], [0.0, -0.0, -0.0, 11.7, 0.0, 0.0], [0.0, 0.0, -0.0, 0.0, 11.7, 0.0], [-0.0, -0.0, -0.0, 0.0, 0.0, 11.7]], 'warnings': [], 'nsites': 5}",0.0
443,mp-540652,BaFeF5,"{'Ba': 1.0, 'Fe': 1.0, 'F': 5.0}",0.21058374994451323,4.235584119449538,,0.0
444,mp-540828,FeClO,"{'Fe': 1.0, 'Cl': 1.0, 'O': 1.0}",0.24094663161157587,3.311934793739487,,0.0
445,mp-540998,FeTeBr7,"{'Fe': 1.0, 'Te': 1.0, 'Br': 7.0}",0.09345103190127002,3.6235113067468023,,0.0
446,mp-542995,Nb6Fe16Si7,"{'Nb': 6.0, 'Fe': 16.0, 'Si': 7.0}",0.16922425534553837,7.716440684170693,,0.0
447,mp-5451,Er(FeGe)2,"{'Er': 1.0, 'Fe': 2.0, 'Ge': 2.0}",0.17038328912943895,8.830491042709065,"{'G_Reuss': 48.0, 'G_VRH': 51.0, 'G_Voigt': 55.0, 'G_Voigt_Reuss_Hill': 51.0, 'K_Reuss': 126.0, 'K_VRH': 126.0, 'K_Voigt': 126.0, 'K_Voigt_Reuss_Hill': 126.0, 'elastic_anisotropy': 0.76, 'elastic_tensor': [[193.0, 72.0, 110.0, 0.0, 0.0, 0.0], [72.0, 193.0, 110.0, 0.0, 0.0, 0.0], [110.0, 110.0, 162.0, 0.0, 0.0, 0.0], [0.0, 0.0, 0.0, 69.0, 0.0, 0.0], [0.0, 0.0, 0.0, 0.0, 69.0, 0.0], [0.0, 0.0, 0.0, 0.0, 0.0, 52.0]], 'homogeneous_poisson': 0.32, 'poisson_ratio': 0.32, 'universal_anisotropy': 0.76, 'elastic_tensor_original': [[193.37613479996645, 72.1758392781545, 117.76691566186882, 0.0, 0.0, 0.0], [72.1758392781545, 193.37613479996642, 117.76691566186885, 0.0, 0.0, 0.0], [101.96319603007201, 101.96319603007201, 162.32445420506858, 0.0, 0.0, 0.0], [0.0, 0.0, 0.0, 68.84297912296897, 0.0, 0.0], [0.0, 0.0, 0.0, 0.0, 68.84297912296896, 0.0], [0.5185809644715721, -0.5185809644715741, 0.0, 0.0, 0.0, 51.85609452586936]], 'compliance_tensor': [[8.4, 0.2, -5.8, -0.0, -0.0, -0.0], [0.2, 8.4, -5.8, -0.0, -0.0, -0.0], [-5.8, -5.8, 14.0, -0.0, -0.0, 0.0], [-0.0, -0.0, -0.0, 14.5, 0.0, -0.0], [-0.0, -0.0, -0.0, 0.0, 14.5, -0.0], [-0.0, -0.0, 0.0, -0.0, -0.0, 19.3]], 'warnings': ['Contains a rare earth element'], 'nsites': 5}",0.0
448,mp-5529,MnFe2Si,"{'Mn': 1.0, 'Fe': 2.0, 'Si': 1.0}",0.15988294526845548,7.393942769723792,"{'G_Reuss': 77.0, 'G_VRH': 97.0, 'G_Voigt': 117.0, 'G_Voigt_Reuss_Hill': 97.0, 'K_Reuss': 233.0, 'K_VRH': 233.0, 'K_Voigt': 233.0, 'K_Voigt_Reuss_Hill': 233.0, 'elastic_anisotropy': 2.61, 'elastic_tensor': [[290.0, 204.0, 204.0, 0.0, 0.0, 0.0], [204.0, 290.0, 204.0, 0.0, 0.0, 0.0], [204.0, 204.0, 290.0, 0.0, 0.0, 0.0], [0.0, 0.0, 0.0, 167.0, 0.0, 0.0], [0.0, 0.0, 0.0, 0.0, 167.0, 0.0], [0.0, 0.0, 0.0, 0.0, 0.0, 167.0]], 'homogeneous_poisson': 0.32, 'poisson_ratio': 0.32, 'universal_anisotropy': 2.61, 'elastic_tensor_original': [[289.77281097492124, 204.56549634270746, 204.56840515492485, 0.002958759172156841, 0.0035456481770754313, 0.003916760519584426], [204.3651262020633, 289.58456121627796, 204.36543458977218, -0.00017506979396356002, -0.0006389950827984257, 0.0011637346999072984], [204.43510098671467, 204.44914223591303, 289.64704682096243, -0.0011561956862037738, 0.0013491756936741947, 0.0023664663556184824], [-0.0940190378510379, -0.09233947084848042, -0.09343060222185878, 166.84166338236238, 9.136681060549154e-05, -0.00039364354880947383], [-0.06543434941937397, -0.07314690481271362, -0.06985643054793565, -0.0005482402350550688, 166.8632151005082, -0.001259613161230483], [-0.327311981308209, -0.33090828502799446, -0.33252361837349403, 0.00019694672245167152, 0.00010769338780059409, 166.8629512199216]], 'compliance_tensor': [[8.3, -3.4, -3.4, 0.0, 0.0, -0.0], [-3.4, 8.3, -3.4, -0.0, -0.0, 0.0], [-3.4, -3.4, 8.3, 0.0, -0.0, 0.0], [0.0, -0.0, 0.0, 6.0, -0.0, 0.0], [0.0, -0.0, -0.0, -0.0, 6.0, -0.0], [-0.0, 0.0, 0.0, 0.0, -0.0, 6.0]], 'warnings': [], 'nsites': 4}",0.0
449,mp-568030,Th(Al5Fe)2,"{'Th': 1.0, 'Al': 10.0, 'Fe': 2.0}",0.1128237780825966,4.922844195706685,,0.0
450,mp-568961,Ba(FeAs)2,"{'Ba': 1.0, 'Fe': 2.0, 'As': 2.0}",0.20882032009483698,6.446281180426621,"{'G_Reuss': 40.0, 'G_VRH': 42.0, 'G_Voigt': 44.0, 'G_Voigt_Reuss_Hill': 42.0, 'K_Reuss': 75.0, 'K_VRH': 77.0, 'K_Voigt': 79.0, 'K_Voigt_Reuss_Hill': 77.0, 'elastic_anisotropy': 0.59, 'elastic_tensor': [[150.0, 49.0, 57.0, 0.0, 0.0, 0.0], [49.0, 150.0, 57.0, 0.0, 0.0, 0.0], [57.0, 57.0, 89.0, 0.0, 0.0, 0.0], [0.0, 0.0, 0.0, 43.0, 0.0, 0.0], [0.0, 0.0, 0.0, 0.0, 43.0, 0.0], [0.0, 0.0, 0.0, 0.0, 0.0, 58.0]], 'homogeneous_poisson': 0.27, 'poisson_ratio': 0.27, 'universal_anisotropy': 0.59, 'elastic_tensor_original': [[149.72339487581422, 49.025295865002796, 57.12959119945221, 0.0, 0.0, 0.0], [49.03652603986386, 149.73904123449185, 57.140621907891536, 0.0, 0.0, 0.0], [56.560126587200706, 56.560126587200706, 88.71357629942406, 0.0, 0.0, 0.0], [0.22887991298930058, 0.1682951542564509, 0.2112727925032849, 42.87906973810043, 0.0, 0.0], [0.01190652915376844, 0.01138159600470287, 0.012310165678746387, 0.0, 42.89085750396257, 0.0], [0.0001419199421423624, 9.928995952131617e-05, 0.0001274366147142188, 0.0, 0.0, 58.23379525920798]], 'compliance_tensor': [[8.9, -1.0, -5.1, 0.0, -0.0, -0.0], [-1.0, 8.9, -5.1, 0.0, -0.0, 0.0], [-5.1, -5.1, 17.8, -0.0, 0.0, -0.0], [0.0, 0.0, -0.0, 23.3, -0.0, 0.0], [-0.0, -0.0, 0.0, -0.0, 23.3, -0.0], [-0.0, 0.0, -0.0, 0.0, -0.0, 17.2]], 'warnings': [], 'nsites': 10}",0.0
451,mp-570271,Ti4FeBi2,"{'Ti': 4.0, 'Fe': 1.0, 'Bi': 2.0}",0.16040794588278082,7.96999424872082,,0.0
452,mp-570631,U(FeP)2,"{'U': 1.0, 'Fe': 2.0, 'P': 2.0}",0.15805087131509515,10.131419316801042,,0.0
453,mp-571370,Fe2NiP,"{'Fe': 2.0, 'Ni': 1.0, 'P': 1.0}",0.1726545645784447,7.611227635543927,,0.0
454,mp-580439,UFe5Si3,"{'U': 1.0, 'Fe': 5.0, 'Si': 3.0}",0.16366306386552928,8.58815315222817,,0.0
455,mp-607077,Ce(Al4Fe)2,"{'Ce': 1.0, 'Al': 8.0, 'Fe': 2.0}",0.11592183370340371,4.3335338574150395,,0.0
456,mp-608016,Mg(FeO2)2,"{'Mg': 1.0, 'Fe': 2.0, 'O': 4.0}",0.5308948189595902,4.261592679818414,,0.0
457,mp-616023,Cs4Fe3F10,"{'Cs': 4.0, 'Fe': 3.0, 'F': 10.0}",0.35879828626147886,4.348726223659858,,0.0
458,mp-619475,RbFeF4,"{'Rb': 1.0, 'Fe': 1.0, 'F': 4.0}",0.28466889379544713,3.718155410941095,,0.0
459,mp-636320,TiGaFe2,"{'Ti': 1.0, 'Ga': 1.0, 'Fe': 2.0}",0.19699101657735282,7.798866002382084,"{'G_Reuss': 97.0, 'G_VRH': 100.0, 'G_Voigt': 103.0, 'G_Voigt_Reuss_Hill': 100.0, 'K_Reuss': 190.0, 'K_VRH': 190.0, 'K_Voigt': 190.0, 'K_Voigt_Reuss_Hill': 190.0, 'elastic_anisotropy': 0.32, 'elastic_tensor': [[288.0, 141.0, 141.0, 0.0, 0.0, 0.0], [141.0, 288.0, 141.0, 0.0, 0.0, 0.0], [141.0, 141.0, 288.0, 0.0, 0.0, 0.0], [0.0, 0.0, 0.0, 123.0, 0.0, 0.0], [0.0, 0.0, 0.0, 0.0, 123.0, 0.0], [0.0, 0.0, 0.0, 0.0, 0.0, 123.0]], 'homogeneous_poisson': 0.28, 'poisson_ratio': 0.28, 'universal_anisotropy': 0.32, 'elastic_tensor_original': [[285.9597739426787, 138.6951547089835, 138.69510710950084, 0.0, 0.0, 0.0], [141.55207444945597, 288.813006731965, 141.55202593296966, 0.0, 0.0, 0.0], [141.54478277853713, 141.54478277853713, 288.80517222063787, 0.0, 0.0, 0.0], [0.0001671439887012488, 0.0001744304351376065, 0.0001992725565789295, 122.93797698794816, 0.0, 0.0], [-6.500608983980992e-05, -2.169525216946297e-05, -5.5262462414860763e-05, 0.0, 122.93801568602242, 0.0], [0.00025483685449749396, 0.00026057244742524425, 0.0003225762305925857, 0.0, 0.0, 122.93822902292514]], 'compliance_tensor': [[5.1, -1.7, -1.7, -0.0, -0.0, 0.0], [-1.7, 5.1, -1.7, 0.0, 0.0, 0.0], [-1.7, -1.7, 5.1, 0.0, -0.0, -0.0], [-0.0, 0.0, 0.0, 8.1, 0.0, -0.0], [-0.0, 0.0, -0.0, 0.0, 8.1, 0.0], [0.0, 0.0, -0.0, -0.0, 0.0, 8.1]], 'warnings': [], 'nsites': 4}",0.0
460,mp-640158,Hf6Fe16Si7,"{'Hf': 6.0, 'Fe': 16.0, 'Si': 7.0}",0.16623862681327156,9.68819772923922,,0.0
461,mp-861953,AlFeRh2,"{'Al': 1.0, 'Fe': 1.0, 'Rh': 2.0}",0.1347054325552005,8.787100304790068,"{'G_Reuss': 9.0, 'G_VRH': 38.0, 'G_Voigt': 66.0, 'G_Voigt_Reuss_Hill': 38.0, 'K_Reuss': 193.0, 'K_VRH': 193.0, 'K_Voigt': 193.0, 'K_Voigt_Reuss_Hill': 193.0, 'elastic_anisotropy': 29.81, 'elastic_tensor': [[198.0, 190.0, 190.0, 0.0, 0.0, 0.0], [190.0, 198.0, 190.0, 0.0, 0.0, 0.0], [190.0, 190.0, 198.0, 0.0, 0.0, 0.0], [0.0, 0.0, 0.0, 107.0, 0.0, 0.0], [0.0, 0.0, 0.0, 0.0, 107.0, 0.0], [0.0, 0.0, 0.0, 0.0, 0.0, 107.0]], 'homogeneous_poisson': 0.41, 'poisson_ratio': 0.41, 'universal_anisotropy': 29.81, 'elastic_tensor_original': [[196.278452859021, 192.0606213258471, 192.0606213258471, 0.0, 0.0, 0.0], [191.92665328374346, 196.1573456879651, 191.92665328374346, 0.0, 0.0, 0.0], [187.10999617017208, 187.10999617017208, 202.59321721777982, 0.0, 0.0, 0.0], [-0.0002006632131397804, -0.0004671631695326098, -0.0004069632400013364, 106.92482899231207, 0.0, 0.0], [0.0012039767501742173, 0.0016133366695853545, 0.0012200567721242625, 0.0, 106.92473859915577, 0.0], [0.044114568349929155, 0.050367303321182576, 0.042650728693121025, 0.0, 0.0, 106.92342781277506]], 'compliance_tensor': [[84.1, -41.2, -41.2, -0.0, 0.0, 0.0], [-41.2, 84.1, -41.2, 0.0, -0.0, 0.0], [-41.2, -41.2, 84.1, 0.0, 0.0, -0.0], [-0.0, 0.0, 0.0, 9.4, -0.0, -0.0], [0.0, -0.0, 0.0, -0.0, 9.4, -0.0], [0.0, 0.0, -0.0, -0.0, -0.0, 9.4]], 'warnings': ['c11 and c12 are within 5% or c12 is greater than c11', 'c11 and c13 are within 5% or c13 is greater than c11', 'c11 and c23 are within 5% or c23 is greater than c11'], 'nsites': 4}",0.0
462,mp-861983,Ti2MnFe,"{'Ti': 2.0, 'Mn': 1.0, 'Fe': 1.0}",0.17020698849289723,6.549536522803793,"{'G_Reuss': 74.0, 'G_VRH': 78.0, 'G_Voigt': 83.0, 'G_Voigt_Reuss_Hill': 78.0, 'K_Reuss': 180.0, 'K_VRH': 180.0, 'K_Voigt': 180.0, 'K_Voigt_Reuss_Hill': 180.0, 'elastic_anisotropy': 0.63, 'elastic_tensor': [[339.0, 101.0, 101.0, 0.0, 0.0, 0.0], [101.0, 339.0, 101.0, 0.0, 0.0, 0.0], [101.0, 101.0, 339.0, 0.0, 0.0, 0.0], [0.0, 0.0, 0.0, 59.0, 0.0, 0.0], [0.0, 0.0, 0.0, 0.0, 59.0, 0.0], [0.0, 0.0, 0.0, 0.0, 0.0, 59.0]], 'homogeneous_poisson': 0.31, 'poisson_ratio': 0.31, 'universal_anisotropy': 0.63, 'elastic_tensor_original': [[338.8278747689678, 99.51054345581656, 99.51054345581656, 0.0, 0.0, 0.0], [101.18345411182598, 338.5850843908851, 101.18345411182598, 0.0, 0.0, 0.0], [101.15184329215258, 101.15184329215258, 338.5562079920648, 0.0, 0.0, 0.0], [-0.00022927634209774888, -0.00023043636073739375, -0.00022304634014538852, 58.61699274195926, 0.0, 0.0], [-9.196950918323678e-05, -8.183947230823709e-05, -8.543282422810496e-05, 0.0, 58.61698159863603, 0.0], [-5.060022414903217e-05, -6.263356604428783e-05, -7.624023726764301e-05, 0.0, 0.0, 58.61696380528193]], 'compliance_tensor': [[3.4, -0.8, -0.8, 0.0, 0.0, 0.0], [-0.8, 3.4, -0.8, -0.0, -0.0, 0.0], [-0.8, -0.8, 3.4, -0.0, 0.0, -0.0], [0.0, -0.0, -0.0, 17.1, 0.0, 0.0], [0.0, -0.0, 0.0, 0.0, 17.1, -0.0], [0.0, 0.0, -0.0, 0.0, -0.0, 17.1]], 'warnings': [], 'nsites': 4}",0.0
463,mp-865170,GaFeRh2,"{'Ga': 1.0, 'Fe': 1.0, 'Rh': 2.0}",0.1428965390542674,9.955781372266408,"{'G_Reuss': -163.0, 'G_VRH': -57.0, 'G_Voigt': 48.0, 'G_Voigt_Reuss_Hill': -57.0, 'K_Reuss': 192.0, 'K_VRH': 192.0, 'K_Voigt': 192.0, 'K_Voigt_Reuss_Hill': 192.0, 'elastic_anisotropy': -6.48, 'elastic_tensor': [[147.0, 214.0, 214.0, 0.0, 0.0, 0.0], [214.0, 147.0, 214.0, 0.0, 0.0, 0.0], [214.0, 214.0, 147.0, 0.0, 0.0, 0.0], [0.0, 0.0, 0.0, 103.0, 0.0, 0.0], [0.0, 0.0, 0.0, 0.0, 103.0, 0.0], [0.0, 0.0, 0.0, 0.0, 0.0, 103.0]], 'homogeneous_poisson': 0.67, 'poisson_ratio': 0.67, 'universal_anisotropy': -6.48, 'elastic_tensor_original': [[147.2657808294613, 213.95824798820613, 213.95824798820613, -0.6248847611286231, -0.09676825066324632, 0.09676825066324632], [213.95824798820613, 147.2657808294613, 213.95824798820613, -0.09676825066324139, 0.624884761128629, -0.09675865073758541], [213.95824798820613, 213.95824798820613, 147.2657808294613, -0.09675865073757955, -0.09675865073757955, 0.6248847611286231], [0.0, 0.0, 0.0, 102.57493805110342, 0.0, 0.0], [0.0, 0.0, 0.0, 0.0, 102.57493805110342, 0.0], [0.0, 0.0, 0.0, 0.0, 0.0, 102.57493805110342]], 'compliance_tensor': [[-9.4, 5.6, 5.6, -0.0, -0.0, 0.0], [5.6, -9.4, 5.6, -0.0, -0.0, -0.0], [5.6, 5.6, -9.4, -0.0, -0.0, -0.0], [-0.0, -0.0, -0.0, 9.7, 0.0, -0.0], [-0.0, -0.0, -0.0, 0.0, 9.7, -0.0], [0.0, -0.0, -0.0, -0.0, -0.0, 9.7]], 'warnings': ['Elastic tensor has a negative eigenvalue', 'c11 and c12 are within 5% or c12 is greater than c11', 'c11 and c13 are within 5% or c13 is greater than c11', 'c11 and c23 are within 5% or c23 is greater than c11', 'One or more K, G below 2 GPa'], 'nsites': 4}",0.0
464,mp-865280,NbAlFe2,"{'Nb': 1.0, 'Al': 1.0, 'Fe': 2.0}",0.1679079732267066,7.347107032217943,"{'G_Reuss': 124.0, 'G_VRH': 124.0, 'G_Voigt': 124.0, 'G_Voigt_Reuss_Hill': 124.0, 'K_Reuss': 212.0, 'K_VRH': 212.0, 'K_Voigt': 212.0, 'K_Voigt_Reuss_Hill': 212.0, 'elastic_anisotropy': 0.0, 'elastic_tensor': [[379.0, 128.0, 128.0, 0.0, 0.0, 0.0], [128.0, 379.0, 128.0, 0.0, 0.0, 0.0], [128.0, 128.0, 379.0, 0.0, 0.0, 0.0], [0.0, 0.0, 0.0, 123.0, 0.0, 0.0], [0.0, 0.0, 0.0, 0.0, 123.0, 0.0], [0.0, 0.0, 0.0, 0.0, 0.0, 123.0]], 'homogeneous_poisson': 0.26, 'poisson_ratio': 0.26, 'universal_anisotropy': 0.0, 'elastic_tensor_original': [[378.59279167518434, 128.29515434933273, 128.29515434933273, 0.0, 0.0, 0.0], [128.44605483756783, 378.7566656824642, 128.44605483756783, 0.0, 0.0, 0.0], [128.46206662096438, 128.46206662096438, 378.7708087472571, 0.0, 0.0, 0.0], [0.056982292141381535, 0.056677452540071616, 0.05691745889284096, 122.95937832876378, 0.0, 0.0], [0.0010285653214403398, 0.0010139053406135843, 0.0010551519533338108, 0.0, 122.9722077186513, 0.0], [-0.01197619433672524, -0.01179141124506404, -0.012118567483852245, 0.0, 0.0, 122.96121996968853]], 'compliance_tensor': [[3.2, -0.8, -0.8, -0.0, 0.0, 0.0], [-0.8, 3.2, -0.8, 0.0, -0.0, 0.0], [-0.8, -0.8, 3.2, 0.0, 0.0, -0.0], [-0.0, 0.0, 0.0, 8.1, -0.0, -0.0], [0.0, -0.0, 0.0, -0.0, 8.1, -0.0], [0.0, 0.0, -0.0, -0.0, -0.0, 8.1]], 'warnings': [], 'nsites': 4}",0.0