,mp_id,Formula,Composition,IPF,Density,Elastic_Tensor,E_above_Hull
888,mp-19226,NaFePO4,"{'Na': 1.0, 'Fe': 1.0, 'P': 1.0, 'O': 4.0}",0.5374331018738084,3.578322829907119,"{'G_Reuss': 40.0, 'G_VRH': 42.0, 'G_Voigt': 43.0, 'G_Voigt_Reuss_Hill': 42.0, 'K_Reuss': 83.0, 'K_VRH': 84.0, 'K_Voigt': 84.0, 'K_Voigt_Reuss_Hill': 84.0, 'elastic_anisotropy': 0.46, 'elastic_tensor': [[137.0, 49.0, 45.0, 0.0, 0.0, 0.0], [49.0, 157.0, 62.0, 0.0, 0.0, 0.0], [45.0, 62.0, 150.0, 0.0, 0.0, 0.0], [0.0, 0.0, 0.0, 55.0, 0.0, 0.0], [0.0, 0.0, 0.0, 0.0, 24.0, 0.0], [0.0, 0.0, 0.0, 0.0, 0.0, 42.0]], 'homogeneous_poisson': 0.29, 'poisson_ratio': 0.29, 'universal_anisotropy': 0.46, 'elastic_tensor_original': [[149.87849976891204, 44.91827714894609, 62.11874296539232, 0.0, 0.0, 0.0], [44.095237966716574, 137.4276185358249, 49.268790282902664, 0.0, 0.0, 0.0], [62.833990252552155, 48.48989642110561, 157.1662948525178, 0.0, 0.0, 0.0], [-0.04562815332691837, -0.12044429944358584, 0.013720226012002443, 42.154328718072996, 0.0, 0.0], [0.008653923270335475, -0.00845951008818534, 0.007065351172343571, 0.0, 54.97844472971324, 0.0], [0.01096708763965762, -0.01818041503569795, -0.03935208427596366, 0.0, 0.0, 24.098744467655248]], 'compliance_tensor': [[8.5, -2.0, -1.7, 0.0, 0.0, -0.0], [-2.0, 8.1, -2.8, 0.0, 0.0, 0.0], [-1.7, -2.8, 8.3, 0.0, 0.0, -0.0], [0.0, 0.0, 0.0, 18.2, 0.0, 0.0], [0.0, 0.0, 0.0, 0.0, 41.5, 0.0], [-0.0, 0.0, -0.0, 0.0, 0.0, 23.7]], 'warnings': [], 'nsites': 28}",0.0
889,mp-20968,KFe(SO4)2,"{'K': 1.0, 'Fe': 1.0, 'S': 2.0, 'O': 8.0}",0.5184350135952797,2.7444544732955864,,0.0
890,mp-21971,Ca3Fe2(GeO4)3,"{'Ca': 3.0, 'Fe': 2.0, 'Ge': 3.0, 'O': 12.0}",0.5364936980194237,4.395195105017709,,0.0
891,mp-26003,LiFe(PO3)3,"{'Li': 1.0, 'Fe': 1.0, 'P': 3.0, 'O': 9.0}",0.46530802689560324,2.784880788481296,,0.0
892,mp-26181,LiFeP2O7,"{'Li': 1.0, 'Fe': 1.0, 'P': 2.0, 'O': 7.0}",0.5453356475331308,3.263031057210059,,0.0
893,mp-504699,Ba2UFeO6,"{'Ba': 2.0, 'U': 1.0, 'Fe': 1.0, 'O': 6.0}",0.5609131698238965,7.3107899205784355,,0.0
894,mp-553974,Ba7Fe6CuF34,"{'Ba': 7.0, 'Fe': 6.0, 'Cu': 1.0, 'F': 34.0}",0.21550306848068776,4.356117887162226,,0.0
895,mp-554148,KFe(MoO4)2,"{'K': 1.0, 'Fe': 1.0, 'Mo': 2.0, 'O': 8.0}",0.41478542989065637,3.237975255549194,,0.6556725000113062
896,mp-554149,BaNaFe2F9,"{'Ba': 1.0, 'Na': 1.0, 'Fe': 2.0, 'F': 9.0}",0.21030234070606857,3.9876350282778703,,0.0
897,mp-559454,Cs2KFeF6,"{'Cs': 2.0, 'K': 1.0, 'Fe': 1.0, 'F': 6.0}",0.3883060450096844,4.039036077441848,,0.0
898,mp-6638,Nd2Fe2Si2C,"{'Nd': 2.0, 'Fe': 2.0, 'Si': 2.0, 'C': 1.0}",0.20415875597086552,6.6025820186581115,,0.0
899,mp-754241,Li4Cr3FeO8,"{'Li': 4.0, 'Cr': 3.0, 'Fe': 1.0, 'O': 8.0}",0.6234737950560394,4.124055754177828,,0.23888187502674185
900,mp-775201,Cr3Fe(PO4)6,"{'Cr': 3.0, 'Fe': 1.0, 'P': 6.0, 'O': 24.0}",0.4672523162771779,2.7780370159320467,,0.0
901,mp-867747,Nb3Fe(PO4)6,"{'Nb': 3.0, 'Fe': 1.0, 'P': 6.0, 'O': 24.0}",0.43355656256081554,3.0311480528651793,,0.0
902,mp-8924,Ba2LiFe2N3,"{'Ba': 2.0, 'Li': 1.0, 'Fe': 2.0, 'N': 3.0}",0.285342975132081,5.275288974708858,,0.0
903,mp-998964,TiGaFeCo,"{'Ti': 1.0, 'Ga': 1.0, 'Fe': 1.0, 'Co': 1.0}",0.18156565862394278,7.852732359070375,"{'G_Reuss': 116.0, 'G_VRH': 116.0, 'G_Voigt': 117.0, 'G_Voigt_Reuss_Hill': 116.0, 'K_Reuss': 204.0, 'K_VRH': 204.0, 'K_Voigt': 204.0, 'K_Voigt_Reuss_Hill': 204.0, 'elastic_anisotropy': 0.04, 'elastic_tensor': [[343.0, 134.0, 134.0, 0.0, 0.0, 0.0], [134.0, 343.0, 134.0, 0.0, 0.0, 0.0], [134.0, 134.0, 343.0, 0.0, 0.0, 0.0], [0.0, 0.0, 0.0, 125.0, 0.0, 0.0], [0.0, 0.0, 0.0, 0.0, 125.0, 0.0], [0.0, 0.0, 0.0, 0.0, 0.0, 125.0]], 'homogeneous_poisson': 0.26, 'poisson_ratio': 0.26, 'universal_anisotropy': 0.04, 'elastic_tensor_original': [[343.43702792468986, 134.34051088159129, 134.34051088159129, 0.0, 0.0, 0.0], [134.34051088159129, 343.43702792468986, 134.34051088159129, 0.0, 0.0, 0.0], [134.34051088159129, 134.34051088159129, 343.43702792468986, 0.0, 0.0, 0.0], [0.0, 0.0, 0.0, 124.9148130092973, 0.0, 0.0], [0.0, 0.0, 0.0, 0.0, 124.9148130092973, 0.0], [0.0, 0.0, 0.0, 0.0, 0.0, 124.9148130092973]], 'compliance_tensor': [[3.7, -1.0, -1.0, 0.0, -0.0, 0.0], [-1.0, 3.7, -1.0, -0.0, 0.0, -0.0], [-1.0, -1.0, 3.7, -0.0, -0.0, 0.0], [0.0, -0.0, -0.0, 8.0, -0.0, -0.0], [-0.0, 0.0, -0.0, 0.0, 8.0, -0.0], [0.0, -0.0, 0.0, -0.0, -0.0, 8.0]], 'warnings': [], 'nsites': 4}",0.0
904,mp-1021504,Ba2NbFeO6,"{'Ba': 2.0, 'Nb': 1.0, 'Fe': 1.0, 'O': 6.0}",0.597923651276676,6.2213409939485995,,0.0
905,mp-1025262,Sm2Fe2Si2C,"{'Sm': 2.0, 'Fe': 2.0, 'Si': 2.0, 'C': 1.0}",0.19485406368576574,7.012711217690293,"{'G_Reuss': 66.0, 'G_VRH': 72.0, 'G_Voigt': 78.0, 'G_Voigt_Reuss_Hill': 72.0, 'K_Reuss': 126.0, 'K_VRH': 128.0, 'K_Voigt': 130.0, 'K_Voigt_Reuss_Hill': 128.0, 'elastic_anisotropy': 0.91, 'elastic_tensor': [[194.0, 86.0, 89.0, 0.0, -48.0, 0.0], [86.0, 250.0, 79.0, 0.0, 12.0, 0.0], [89.0, 79.0, 213.0, 0.0, 5.0, 0.0], [0.0, 0.0, 0.0, 85.0, 0.0, 12.0], [-48.0, 12.0, 5.0, 0.0, 82.0, 0.0], [0.0, 0.0, 0.0, 12.0, 0.0, 87.0]], 'homogeneous_poisson': 0.26, 'poisson_ratio': 0.26, 'universal_anisotropy': 0.91, 'elastic_tensor_original': [[194.19185689149754, 99.38740451301021, 95.82963064272221, -6.199990712123348e-06, -52.043602836243906, 2.3199965245364786e-05], [71.75127832340984, 250.22967887118767, 73.54175037298874, -7.999887627096664e-07, 6.623339963200466, -8.599879199128913e-06], [82.72139282124937, 85.09066025007566, 213.20688515852376, 0.0, 0.6323518763299653, 9.999792466850081e-06], [0.0, -2.7707406621637872e-08, 0.0, 84.73138495876711, 0.0, 11.450186540220942], [-43.99649510486573, 17.79853267870371, 9.599726622822033, 9.899925565725203e-06, 82.25231147200131, -5.3999593994864745e-06], [0.0, -2.0991024144934034e-07, 0.0, 11.917609728202544, 0.0, 87.21061577899447]], 'compliance_tensor': [[9.1, -2.4, -3.0, -0.0, 5.8, 0.0], [-2.4, 5.2, -0.9, 0.0, -2.1, 0.0], [-3.0, -0.9, 6.3, 0.0, -2.0, -0.0], [-0.0, 0.0, 0.0, 12.0, 0.0, -1.6], [5.8, -2.1, -2.0, 0.0, 16.0, -0.0], [0.0, 0.0, -0.0, -1.6, -0.0, 11.7]], 'warnings': ['Contains a rare earth element'], 'nsites': 7}",0.0
906,mp-1095252,SrFe2Se2O,"{'Sr': 1.0, 'Fe': 2.0, 'Se': 2.0, 'O': 1.0}",0.23186902287883357,4.501876825699914,,0.0
907,mp-1095280,SrFe2S2O,"{'Sr': 1.0, 'Fe': 2.0, 'S': 2.0, 'O': 1.0}",0.23150088991452827,3.7153539741660597,,0.0
908,mp-1103865,BaFe2(PO4)2,"{'Ba': 1.0, 'Fe': 2.0, 'P': 2.0, 'O': 8.0}",0.5184392157702546,4.320099226120603,,0.0
909,mp-1103970,FeSO4F,"{'Fe': 1.0, 'S': 1.0, 'O': 4.0, 'F': 1.0}",0.46690944435912357,3.27710929840708,,0.0
910,mp-1205543,TbFe2SiC,"{'Tb': 1.0, 'Fe': 2.0, 'Si': 1.0, 'C': 1.0}",0.1492243318891509,7.758422530432119,,0.0
911,mp-1211812,K4Zr6FeBr18,"{'K': 4.0, 'Zr': 6.0, 'Fe': 1.0, 'Br': 18.0}",0.12807607725683245,3.6166739458013772,,0.0
912,mp-1216422,Y4Fe28BC,"{'Y': 4.0, 'Fe': 28.0, 'B': 1.0, 'C': 1.0}",0.20347428885814828,7.139138090666452,,0.0
913,mp-1216780,UMnFeSi2,"{'U': 1.0, 'Mn': 1.0, 'Fe': 1.0, 'Si': 2.0}",0.1250995049045663,9.208740005698507,,0.0
914,mp-1218104,SrPr3(FeO3)4,"{'Sr': 1.0, 'Pr': 3.0, 'Fe': 4.0, 'O': 12.0}",0.5539168957442178,6.282479057481409,,0.0
915,mp-1218438,Sr3Nd(FeO4)2,"{'Sr': 3.0, 'Nd': 1.0, 'Fe': 2.0, 'O': 8.0}",0.5746627854830063,5.619125187877528,,0.0
916,mp-1218828,Sr2FeO3F,"{'Sr': 2.0, 'Fe': 1.0, 'O': 3.0, 'F': 1.0}",0.4816273499481213,4.918525347315275,,0.0
917,mp-1219215,Sm2VFeO6,"{'Sm': 2.0, 'V': 1.0, 'Fe': 1.0, 'O': 6.0}",0.5822887065378625,6.916329278663574,,0.0
918,mp-1221926,MnNb8(FeO8)3,"{'Mn': 1.0, 'Nb': 8.0, 'Fe': 3.0, 'O': 24.0}",0.5210518079619654,5.110668628408511,,0.0
919,mp-1221970,Mn3Nb8FeO24,"{'Mn': 3.0, 'Nb': 8.0, 'Fe': 1.0, 'O': 24.0}",0.5106459940869659,5.066335051868236,,0.0
920,mp-1223335,La2FeNiO6,"{'La': 2.0, 'Fe': 1.0, 'Ni': 1.0, 'O': 6.0}",0.5591866431917254,6.6631403657873545,,0.0
921,mp-1224759,Gd2FeSbO7,"{'Gd': 2.0, 'Fe': 1.0, 'Sb': 1.0, 'O': 7.0}",0.5331125513539139,7.22173597667358,,0.0
922,mp-1224890,FeSb3Pb4O13,"{'Fe': 1.0, 'Sb': 3.0, 'Pb': 4.0, 'O': 13.0}",0.47267749972003625,8.035532291132142,,0.0
923,mp-1225377,Eu2FeP3Pt7,"{'Eu': 2.0, 'Fe': 1.0, 'P': 3.0, 'Pt': 7.0}",0.15289899765585765,13.41854648039051,,0.0
924,mp-1226156,Dy4Fe28BC,"{'Dy': 4.0, 'Fe': 28.0, 'B': 1.0, 'C': 1.0}",0.21513163975698807,8.210530928793993,,0.0
925,mp-1226300,Cr4FeCoS8,"{'Cr': 4.0, 'Fe': 1.0, 'Co': 1.0, 'S': 8.0}",0.17393935047851095,4.056336642009772,,0.0
926,mp-1227161,CaPr3(FeO3)4,"{'Ca': 1.0, 'Pr': 3.0, 'Fe': 4.0, 'O': 12.0}",0.5463099585852276,6.03052261922706,,0.0
927,mp-1228536,Ba2TiFeO6,"{'Ba': 2.0, 'Ti': 1.0, 'Fe': 1.0, 'O': 6.0}",0.6111379800536911,5.788020993647212,,0.9323876666673669
928,mp-1232352,Dy2CrFeO6,"{'Dy': 2.0, 'Cr': 1.0, 'Fe': 1.0, 'O': 6.0}",0.5962324623307094,7.6469899166460245,,0.0
929,mp-1275487,Ca2FeWO6,"{'Ca': 2.0, 'Fe': 1.0, 'W': 1.0, 'O': 6.0}",0.544979055919257,5.60248150241696,,0.0
930,mp-1289745,Ba2FeMoO6,"{'Ba': 2.0, 'Fe': 1.0, 'Mo': 1.0, 'O': 6.0}",0.5989811668232313,6.296069627938721,,0.0
931,mp-1573242,CaFeP2O7,"{'Ca': 1.0, 'Fe': 1.0, 'P': 2.0, 'O': 7.0}",0.5117154112109503,3.3306477567856514,,0.0
932,mp-17477,AlFePO5,"{'Al': 1.0, 'Fe': 1.0, 'P': 1.0, 'O': 5.0}",0.4389546295902132,3.039389640093683,,0.0
933,mp-19165,BaFe(Si2O5)2,"{'Ba': 1.0, 'Fe': 1.0, 'Si': 4.0, 'O': 10.0}",0.4300517362539882,3.2311720643868247,,0.0
934,mp-23125,K3NaFeCl6,"{'K': 3.0, 'Na': 1.0, 'Fe': 1.0, 'Cl': 6.0}",0.21820443142771886,2.2724111249483676,,0.0
935,mp-552162,Sr2FeReO6,"{'Sr': 2.0, 'Fe': 1.0, 'Re': 1.0, 'O': 6.0}",0.5680541653047236,6.573662773579064,,0.0
936,mp-555333,LiMnFeF6,"{'Li': 1.0, 'Mn': 1.0, 'Fe': 1.0, 'F': 6.0}",0.14618464452004526,3.606324458171256,,0.0
937,mp-556300,Fe3B7ClO13,"{'Fe': 3.0, 'B': 7.0, 'Cl': 1.0, 'O': 13.0}",0.5161009016585731,3.454742994659632,,0.0
938,mp-556723,Na3Fe2(AsO4)3,"{'Na': 3.0, 'Fe': 2.0, 'As': 3.0, 'O': 12.0}",0.5377226529466219,4.136218345421836,,0.0
939,mp-558367,KCr2FeO8,"{'K': 1.0, 'Cr': 2.0, 'Fe': 1.0, 'O': 8.0}",0.4698122204393603,2.7936550979164263,,0.0
940,mp-560330,Ba3Fe2Cl2O5,"{'Ba': 3.0, 'Fe': 2.0, 'Cl': 2.0, 'O': 5.0}",0.35576990007008324,4.302223319308177,,0.0
941,mp-569739,ErAl9(Fe2Si3)2,"{'Er': 1.0, 'Al': 9.0, 'Fe': 4.0, 'Si': 6.0}",0.1074065866344393,4.688217362217585,,0.0
942,mp-582883,Pr21Fe8Bi7C12,"{'Pr': 21.0, 'Fe': 8.0, 'Bi': 7.0, 'C': 12.0}",0.14551108240376318,7.5989029146496065,,0.0
943,mp-643004,SrMg2FeH8,"{'Sr': 1.0, 'Mg': 2.0, 'Fe': 1.0, 'H': 8.0}",0.15239595714797735,2.8845672319004234,,0.0
944,mp-644264,Ca4Mg4Fe3H22,"{'Ca': 4.0, 'Mg': 4.0, 'Fe': 3.0, 'H': 22.0}",0.14480703268438752,2.4855974917700445,"{'G_Reuss': 44.0, 'G_VRH': 44.0, 'G_Voigt': 44.0, 'G_Voigt_Reuss_Hill': 44.0, 'K_Reuss': 61.0, 'K_VRH': 61.0, 'K_Voigt': 61.0, 'K_Voigt_Reuss_Hill': 61.0, 'elastic_anisotropy': 0.01, 'elastic_tensor': [[117.0, 33.0, 33.0, 0.0, 0.0, 0.0], [33.0, 117.0, 33.0, 0.0, 0.0, 0.0], [33.0, 33.0, 117.0, 0.0, 0.0, 0.0], [0.0, 0.0, 0.0, 45.0, 0.0, 0.0], [0.0, 0.0, 0.0, 0.0, 45.0, 0.0], [0.0, 0.0, 0.0, 0.0, 0.0, 45.0]], 'homogeneous_poisson': 0.21, 'poisson_ratio': 0.21, 'universal_anisotropy': 0.01, 'elastic_tensor_original': [[117.43475784609147, 33.25295797810952, 33.25295797810952, 0.0, 0.0, 0.0], [33.24906816066233, 117.43074150400042, 33.24906816066233, 0.0, 0.0, 0.0], [33.24695962163207, 33.24695962163207, 117.43119198894253, 0.0, 0.0, 0.0], [-0.006824331043053791, 0.02227503062681419, -0.03422818363821049, 45.04677936691698, 0.0, 0.0], [0.006843150614352395, 0.006021523943930907, 0.0068843579425854565, 0.0, 45.04609484192691, 0.0], [-0.05282940759515628, -0.052722826517119764, -0.054659133505997264, 0.0, 0.0, 45.044042140685875]], 'compliance_tensor': [[9.7, -2.1, -2.1, -0.0, 0.0, -0.0], [-2.1, 9.7, -2.1, 0.0, 0.0, 0.0], [-2.1, -2.1, 9.7, 0.0, 0.0, -0.0], [-0.0, 0.0, 0.0, 22.2, 0.0, 0.0], [0.0, 0.0, 0.0, 0.0, 22.2, 0.0], [-0.0, 0.0, -0.0, 0.0, 0.0, 22.2]], 'warnings': [], 'nsites': 33}",0.0
945,mp-744948,FeH8(ClO2)2,"{'Fe': 1.0, 'H': 8.0, 'Cl': 2.0, 'O': 4.0}",0.22938896025992728,1.8891058906394544,,0.0
946,mp-758930,Na5FeHO4,"{'Na': 5.0, 'Fe': 1.0, 'H': 1.0, 'O': 4.0}",0.44447624824067977,2.5294841126797665,,0.0
947,mp-771651,Li8Mn13Fe3O32,"{'Li': 8.0, 'Mn': 13.0, 'Fe': 3.0, 'O': 32.0}",0.5294677205143985,4.042588988467407,,0.0
948,mp-774425,FeSb3(PO4)6,"{'Fe': 1.0, 'Sb': 3.0, 'P': 6.0, 'O': 24.0}",0.4518177393447431,3.4570245389100305,,0.0
949,mp-9211,Tm2Fe2Si2C,"{'Tm': 2.0, 'Fe': 2.0, 'Si': 2.0, 'C': 1.0}",0.1685114178255008,8.221256348591078,"{'G_Reuss': 82.0, 'G_VRH': 86.0, 'G_Voigt': 89.0, 'G_Voigt_Reuss_Hill': 86.0, 'K_Reuss': 134.0, 'K_VRH': 136.0, 'K_Voigt': 137.0, 'K_Voigt_Reuss_Hill': 136.0, 'elastic_anisotropy': 0.46, 'elastic_tensor': [[239.0, 95.0, 71.0, 0.0, -43.0, 0.0], [95.0, 270.0, 85.0, 0.0, 12.0, 0.0], [71.0, 85.0, 221.0, 0.0, 12.0, 0.0], [0.0, 0.0, 0.0, 97.0, 0.0, 19.0], [-43.0, 12.0, 12.0, 0.0, 96.0, 0.0], [0.0, 0.0, 0.0, 19.0, 0.0, 93.0]], 'homogeneous_poisson': 0.24, 'poisson_ratio': 0.24, 'universal_anisotropy': 0.46, 'elastic_tensor_original': [[239.18399464107083, 101.21457676440832, 72.50745218327225, 0.0, -40.93235568413532, 0.0], [87.86784466598576, 269.95465453986236, 82.60150353251996, -1.599960484649619e-06, 12.88465037871945, -1.0799733271384928e-05], [69.47278892153503, 86.68905516673394, 221.21133742851376, 0.0, 10.887225950823222, 0.0], [0.0, 4.6190652364242956e-08, 0.0, 96.89398469054473, 0.0, 18.701613974212293], [-44.414616573367745, 10.350091727182654, 13.122992948684601, 0.0, 96.39777833684118, 0.0], [0.0, 2.290357703376881e-07, 0.0, 18.36632482828161, 0.0, 92.70985965955025]], 'compliance_tensor': [[5.8, -1.7, -1.4, 0.0, 2.9, -0.0], [-1.7, 4.7, -1.2, 0.0, -1.2, -0.0], [-1.4, -1.2, 5.5, 0.0, -1.1, 0.0], [0.0, 0.0, 0.0, 10.7, -0.0, -2.1], [2.9, -1.2, -1.1, -0.0, 12.0, 0.0], [-0.0, -0.0, 0.0, -2.1, 0.0, 11.2]], 'warnings': ['Contains a rare earth element'], 'nsites': 7}",0.0
950,mp-1025339,Y2Fe2Si2C,"{'Y': 2.0, 'Fe': 2.0, 'Si': 2.0, 'C': 1.0}",0.14909469323306018,5.518674272107517,"{'G_Reuss': 79.0, 'G_VRH': 83.0, 'G_Voigt': 87.0, 'G_Voigt_Reuss_Hill': 83.0, 'K_Reuss': 124.0, 'K_VRH': 126.0, 'K_Voigt': 127.0, 'K_Voigt_Reuss_Hill': 126.0, 'elastic_anisotropy': 0.5, 'elastic_tensor': [[216.0, 89.0, 62.0, 0.0, -41.0, 0.0], [89.0, 267.0, 74.0, 0.0, 15.0, 0.0], [62.0, 74.0, 212.0, 0.0, 12.0, 0.0], [0.0, 0.0, 0.0, 93.0, 0.0, 13.0], [-41.0, 15.0, 12.0, 0.0, 91.0, 0.0], [0.0, 0.0, 0.0, 13.0, 0.0, 93.0]], 'homogeneous_poisson': 0.23, 'poisson_ratio': 0.23, 'universal_anisotropy': 0.5, 'elastic_tensor_original': [[215.99957452963147, 95.58630791431418, 53.88060257190623, 0.0, -43.093477321132006, 0.0], [82.61001956270358, 266.80399664374016, 63.396384008965185, -1.1999969867561832e-06, 10.109894013623235, -1.0199974387427557e-05], [69.85869301550646, 84.55672392004476, 211.54441243081567, 0.0, 11.341595035145872, 0.0], [0.0, 0.0, 0.0, 93.03870195264935, 0.0, 12.796124982106418], [-39.27982162899798, 19.08170695423718, 12.241812147468798, 0.0, 91.53505248139525, 0.0], [0.0, 0.0, 0.0, 13.741067362006689, 0.0, 92.96382119623279]], 'compliance_tensor': [[6.5, -2.0, -1.4, -0.0, 3.4, 0.0], [-2.0, 4.8, -1.0, 0.0, -1.5, 0.0], [-1.4, -1.0, 5.6, 0.0, -1.2, -0.0], [-0.0, 0.0, 0.0, 11.0, 0.0, -1.6], [3.4, -1.5, -1.2, 0.0, 12.9, 0.0], [0.0, 0.0, -0.0, -1.6, 0.0, 11.0]], 'warnings': [], 'nsites': 7}",0.0
951,mp-1173284,Sr2FeMoO6,"{'Sr': 2.0, 'Fe': 1.0, 'Mo': 1.0, 'O': 6.0}",0.576051063737827,5.4616495484166325,,0.0
952,mp-1190259,Ba3UFeSe6,"{'Ba': 3.0, 'U': 1.0, 'Fe': 1.0, 'Se': 6.0}",0.23083999488662746,6.077908512433599,,0.0
953,mp-1192925,Ce3AlFeS7,"{'Ce': 3.0, 'Al': 1.0, 'Fe': 1.0, 'S': 7.0}",0.15548375523637067,4.732664540660465,,0.0
954,mp-1205671,Ba2TaFeO6,"{'Ba': 2.0, 'Ta': 1.0, 'Fe': 1.0, 'O': 6.0}",0.60088334563528,7.311908340975303,,0.0
955,mp-1205771,UFe2SiC,"{'U': 1.0, 'Fe': 2.0, 'Si': 1.0, 'C': 1.0}",0.1550289731280941,9.992222530357784,,0.0
956,mp-1209949,Pr3Sc2(FeO4)3,"{'Pr': 3.0, 'Sc': 2.0, 'Fe': 3.0, 'O': 12.0}",0.4751091625120147,5.329455066590571,,0.0
957,mp-1210923,Li2FeGeO4,"{'Li': 2.0, 'Fe': 1.0, 'Ge': 1.0, 'O': 4.0}",0.48104117902368937,3.735242468931096,,0.0
958,mp-1212984,DyMnFeO5,"{'Dy': 1.0, 'Mn': 1.0, 'Fe': 1.0, 'O': 5.0}",0.5642377062123068,6.403277099569478,,0.0
959,mp-1213459,FeSb(P2O7)2,"{'Fe': 1.0, 'Sb': 1.0, 'P': 4.0, 'O': 14.0}",0.4797949819641522,3.3470446000408955,,0.0
960,mp-1214635,BaNaFeF6,"{'Ba': 1.0, 'Na': 1.0, 'Fe': 1.0, 'F': 6.0}",0.22918502060902504,3.9515926732662763,,0.0
961,mp-1220665,Nd2Mn3FeGe4,"{'Nd': 2.0, 'Mn': 3.0, 'Fe': 1.0, 'Ge': 4.0}",0.1773559694113627,7.574287082697926,,0.0
962,mp-1221018,NaSr4(FeAs)10,"{'Na': 1.0, 'Sr': 4.0, 'Fe': 10.0, 'As': 10.0}",0.1817799298831588,6.108821973237776,,0.8285124000018129
963,mp-1225352,Ga3Fe4Co8Si,"{'Ga': 3.0, 'Fe': 4.0, 'Co': 8.0, 'Si': 1.0}",0.17136429900446545,8.352253884104075,,0.0
964,mp-1225440,Eu2FeSbO7,"{'Eu': 2.0, 'Fe': 1.0, 'Sb': 1.0, 'O': 7.0}",0.544848056237604,6.878612837841319,,0.0
965,mp-1228898,Ba5Eu5(Fe5O13)2,"{'Ba': 5.0, 'Eu': 5.0, 'Fe': 10.0, 'O': 26.0}",0.555996592151117,6.4015859756599385,,0.0
966,mp-17881,SrFeP2O7,"{'O': 7.0, 'P': 2.0, 'Fe': 1.0, 'Sr': 1.0}",0.4916674739407135,3.585399725087433,,0.0
967,mp-19266,Sr2FeWO6,"{'Sr': 2.0, 'Fe': 1.0, 'W': 1.0, 'O': 6.0}",0.5588746876761436,6.405218373930131,,0.0
968,mp-20028,FeBPbO4,"{'Fe': 1.0, 'B': 1.0, 'Pb': 1.0, 'O': 4.0}",0.4616604058169606,6.119326642010795,,0.0
969,mp-31763,Ca2FeReO6,"{'Ca': 2.0, 'Fe': 1.0, 'Re': 1.0, 'O': 6.0}",0.5512189933549312,5.7306635668463635,,0.0
970,mp-504611,Cs2NaFeF6,"{'Cs': 2.0, 'Na': 1.0, 'Fe': 1.0, 'F': 6.0}",0.3716336312426123,4.185784506696737,,0.0
971,mp-543041,FeAs(H2O3)2,"{'Fe': 1.0, 'As': 1.0, 'H': 4.0, 'O': 6.0}",0.44801867702743564,3.1752612071268396,,0.0
972,mp-558078,Rb2NaFeF6,"{'Rb': 2.0, 'Na': 1.0, 'Fe': 1.0, 'F': 6.0}",0.35193898288972486,3.7785085010131514,"{'G_Reuss': 31.0, 'G_VRH': 31.0, 'G_Voigt': 31.0, 'G_Voigt_Reuss_Hill': 31.0, 'K_Reuss': 57.0, 'K_VRH': 57.0, 'K_Voigt': 57.0, 'K_Voigt_Reuss_Hill': 57.0, 'elastic_anisotropy': 0.0, 'elastic_tensor': [[98.0, 37.0, 37.0, 0.0, 0.0, 0.0], [37.0, 98.0, 37.0, 0.0, 0.0, 0.0], [37.0, 37.0, 98.0, 0.0, 0.0, 0.0], [0.0, 0.0, 0.0, 31.0, 0.0, 0.0], [0.0, 0.0, 0.0, 0.0, 31.0, 0.0], [0.0, 0.0, 0.0, 0.0, 0.0, 31.0]], 'homogeneous_poisson': 0.27, 'poisson_ratio': 0.27, 'universal_anisotropy': 0.0, 'elastic_tensor_original': [[98.14668370109958, 36.69274817557009, 36.69274817557009, 0.0, 0.0, 0.0], [36.69274817557009, 98.14668370109958, 36.69274817557009, 0.0, 0.0, 0.0], [36.69274817557009, 36.69274817557009, 98.14668370109958, 0.0, 0.0, 0.0], [0.0, 0.0, 0.0, 31.296268835208988, 0.0, 0.0], [0.0, 0.0, 0.0, 0.0, 31.296268835208988, 0.0], [0.0, 0.0, 0.0, 0.0, 0.0, 31.296268835208988]], 'compliance_tensor': [[12.791503864039992, -3.48084698620909, -3.48084698620909, 1.2354710418139846e-16, -4.487608784148635e-16, -5.253120703331689e-18], [-3.4808469862090905, 12.791503864039989, -3.48084698620909, -4.487608784148635e-16, 1.2354710418139843e-16, 5.253120703331702e-18], [-3.4808469862090905, -3.4808469862090896, 12.791503864039989, -4.487608784148634e-16, -4.487608784148633e-16, 1.2168619150160064e-32], [1.235471041813985e-16, -4.487608784148636e-16, -4.487608784148634e-16, 31.952690758937308, 2.768799728313059e-32, -5.670548618929295e-16], [-4.487608784148636e-16, 1.2354710418139846e-16, -4.487608784148634e-16, 2.76879972831306e-32, 31.952690758937308, -5.670548618929295e-16], [-5.25312070333173e-18, 5.253120703331741e-18, 1.4497800589522572e-32, -5.670548618929295e-16, -5.670548618929295e-16, 31.952690758937308]], 'warnings': [], 'nsites': 10}",0.0
973,mp-656144,BaEuFe2O5,"{'Ba': 1.0, 'Eu': 1.0, 'Fe': 2.0, 'O': 5.0}",0.5541979537039192,6.494569059529672,,0.0