,mp_id,Formula,Composition,IPF,Density,Elastic_Tensor,E_above_Hull
625,mp-1018071,MnFe2Ge,"{'Mn': 1.0, 'Fe': 2.0, 'Ge': 1.0}",0.17818629265494992,8.5873031821058,"{'G_Reuss': 10.0, 'G_VRH': 51.0, 'G_Voigt': 92.0, 'G_Voigt_Reuss_Hill': 51.0, 'K_Reuss': 217.0, 'K_VRH': 217.0, 'K_Voigt': 217.0, 'K_Voigt_Reuss_Hill': 217.0, 'elastic_anisotropy': 40.98, 'elastic_tensor': [[223.0, 214.0, 214.0, 0.0, 0.0, 0.0], [214.0, 223.0, 214.0, 0.0, 0.0, 0.0], [214.0, 214.0, 223.0, 0.0, 0.0, 0.0], [0.0, 0.0, 0.0, 151.0, 0.0, 0.0], [0.0, 0.0, 0.0, 0.0, 151.0, 0.0], [0.0, 0.0, 0.0, 0.0, 0.0, 151.0]], 'homogeneous_poisson': 0.39, 'poisson_ratio': 0.39, 'universal_anisotropy': 40.98, 'elastic_tensor_original': [[222.79405242672283, 214.41302604347308, 214.41302604347308, 0.0, 0.0, 0.0], [214.41302604347308, 222.79405242672283, 214.41302604347308, 0.0, 0.0, 0.0], [214.41302604347308, 214.41302604347308, 222.79405242672283, 0.0, 0.0, 0.0], [0.0, 0.0, 0.0, 151.3607979431475, 0.0, 0.0], [0.0, 0.0, 0.0, 0.0, 151.3607979431475, 0.0], [0.0, 0.0, 0.0, 0.0, 0.0, 151.3607979431475]], 'compliance_tensor': [[80.1, -39.3, -39.3, 0.0, -0.0, -0.0], [-39.3, 80.1, -39.3, -0.0, 0.0, 0.0], [-39.3, -39.3, 80.1, -0.0, -0.0, 0.0], [0.0, -0.0, -0.0, 6.6, -0.0, -0.0], [-0.0, 0.0, -0.0, -0.0, 6.6, -0.0], [-0.0, 0.0, 0.0, -0.0, -0.0, 6.6]], 'warnings': ['c11 and c12 are within 5% or c12 is greater than c11', 'c11 and c13 are within 5% or c13 is greater than c11', 'c11 and c23 are within 5% or c23 is greater than c11'], 'nsites': 4}",0.0
626,mp-10516,Dy6FeTe2,"{'Dy': 6.0, 'Fe': 1.0, 'Te': 2.0}",0.23903703219869027,8.943167903127774,,0.0
627,mp-1095148,TiFeAs,"{'Ti': 1.0, 'Fe': 1.0, 'As': 1.0}",0.15330501469863977,7.1197874190502715,,0.0
628,mp-1101870,TiFeP,"{'Ti': 1.0, 'Fe': 1.0, 'P': 1.0}",0.1594002422135095,6.063218975108092,,0.0
629,mp-1101971,FePS,"{'Fe': 1.0, 'P': 1.0, 'S': 1.0}",0.1542690488786328,4.954631097605143,,0.0
630,mp-1102399,Fe2P2O7,"{'Fe': 2.0, 'P': 2.0, 'O': 7.0}",0.5070286097092304,3.686274469902273,,0.0
631,mp-1105639,U2Fe3Si5,"{'U': 2.0, 'Fe': 3.0, 'Si': 5.0}",0.13002811555402563,8.797071645627431,,0.0
632,mp-11204,Tm6FeSb2,"{'Tm': 6.0, 'Fe': 1.0, 'Sb': 2.0}",0.17356189834795763,9.370438916411247,,0.0
633,mp-1125186,U6Fe16Si7,"{'U': 6.0, 'Fe': 16.0, 'Si': 7.0}",0.18015586196273126,10.667954498958444,,0.0
634,mp-1187984,Zr2FeTc,"{'Zr': 2.0, 'Fe': 1.0, 'Tc': 1.0}",0.14119840484285925,8.185557595390067,,0.0
635,mp-1191561,Tb2Fe12P7,"{'Tb': 2.0, 'Fe': 12.0, 'P': 7.0}",0.1733186309489285,7.8909975964645875,,0.0
636,mp-1193564,Tb(Al5Fe)2,"{'Tb': 1.0, 'Al': 10.0, 'Fe': 2.0}",0.10830595096366515,4.411214063419516,,0.0
637,mp-1193584,U8FeSe17,"{'U': 8.0, 'Fe': 1.0, 'Se': 17.0}",0.16939709209183745,8.496632047640695,,0.0
638,mp-1193899,Ta4Fe4Si7,"{'Ta': 4.0, 'Fe': 4.0, 'Si': 7.0}",0.12273123227809384,9.617870982505142,,0.0
639,mp-1195553,Zr(Zn10Fe)2,"{'Zr': 1.0, 'Zn': 20.0, 'Fe': 2.0}",0.18971086621971336,7.329648892536984,,0.0
640,mp-1196845,Sm6TlFe13,"{'Sm': 6.0, 'Tl': 1.0, 'Fe': 13.0}",0.24305970796546345,8.19052445712362,,0.0
641,mp-1197936,U(Zn10Fe)2,"{'U': 1.0, 'Zn': 20.0, 'Fe': 2.0}",0.1901896537875182,7.890066179700806,,0.0
642,mp-1198337,Yb2Fe3Si5,"{'Yb': 2.0, 'Fe': 3.0, 'Si': 5.0}",0.14666221744095514,7.321884038830146,,0.8605690000003108
643,mp-1205667,Tl3FeF6,"{'Tl': 3.0, 'Fe': 1.0, 'F': 6.0}",0.20958450696432213,6.624793310352149,,0.0
644,mp-1206518,RbFeCl3,"{'Rb': 1.0, 'Fe': 1.0, 'Cl': 3.0}",0.22322727364287498,3.3119942851962696,,0.0
645,mp-1207511,Zr6FeI14,"{'Zr': 6.0, 'Fe': 1.0, 'I': 14.0}",0.17015297921825606,4.814916785829121,,0.0
646,mp-1207959,Tm3Fe2Si3,"{'Tm': 3.0, 'Fe': 2.0, 'Si': 3.0}",0.16736561730177166,8.251917524787405,,0.0
647,mp-1207990,TmFeB4,"{'Tm': 1.0, 'Fe': 1.0, 'B': 4.0}",0.16758447769435603,8.06367424502901,,0.0
648,mp-1209904,Nd(Al5Fe)2,"{'Nd': 1.0, 'Al': 10.0, 'Fe': 2.0}",0.12668531872834715,4.1290638452173525,,0.0
649,mp-1211993,K2FeI4,"{'K': 2.0, 'Fe': 1.0, 'I': 4.0}",0.21930332662668167,3.5081256457984042,,0.0
650,mp-1216977,V2FeGe,"{'V': 2.0, 'Fe': 1.0, 'Ge': 1.0}",0.1673299269536153,7.579563605135279,,0.0
651,mp-1217193,Ti3Fe5P4,"{'Ti': 3.0, 'Fe': 5.0, 'P': 4.0}",0.16505744441058615,6.369320935842189,,0.0
652,mp-1221626,MnFeP2,"{'Mn': 1.0, 'Fe': 1.0, 'P': 2.0}",0.11045139910686609,6.174843243134185,,0.9983545833378571
653,mp-1224446,Hf3TaFe8,"{'Hf': 3.0, 'Ta': 1.0, 'Fe': 8.0}",0.1831876398759952,11.492179696039555,,0.0
654,mp-1273212,Fe(HO)2,"{'Fe': 1.0, 'H': 2.0, 'O': 2.0}",0.4334117044639954,3.3416018962353355,,0.45900450000146975
655,mp-1311506,Na2FeO3,"{'Na': 2.0, 'Fe': 1.0, 'O': 3.0}",0.6000712287846443,3.6582342130220944,,0.0
656,mp-16483,BaAl9Fe2,"{'Ba': 1.0, 'Al': 9.0, 'Fe': 2.0}",0.13972301430837555,3.7243295083372905,"{'G_Reuss': 42.0, 'G_VRH': 45.0, 'G_Voigt': 48.0, 'G_Voigt_Reuss_Hill': 45.0, 'K_Reuss': 79.0, 'K_VRH': 79.0, 'K_Voigt': 79.0, 'K_Voigt_Reuss_Hill': 79.0, 'elastic_anisotropy': 0.7, 'elastic_tensor': [[127.0, 65.0, 51.0, 0.0, 0.0, 0.0], [65.0, 127.0, 51.0, 0.0, 0.0, 0.0], [51.0, 51.0, 126.0, 0.0, 0.0, 0.0], [0.0, 0.0, 0.0, 69.0, 0.0, 0.0], [0.0, 0.0, 0.0, 0.0, 69.0, 0.0], [0.0, 0.0, 0.0, 0.0, 0.0, 31.0]], 'homogeneous_poisson': 0.26, 'poisson_ratio': 0.26, 'universal_anisotropy': 0.7, 'elastic_tensor_original': [[126.13022999025412, 66.94952266763906, 53.008488456107074, 0.0, 0.0, 0.0], [66.41466755509849, 124.8400661302368, 52.12036315900901, 0.0, 0.0, 0.0], [49.767753696657536, 49.76776543663891, 125.68640290759322, 0.0, 0.0, 0.0], [-0.00023413072621631282, -0.00022880733702227538, -0.00024188403095045316, 69.10669605052165, 0.0, 0.0], [2.0679975264009968e-05, 3.965328590041819e-05, 4.8113275781069745e-05, 0.0, 69.1235291186967, 0.0], [-5.444338352334884e-05, -4.663346734694375e-05, -6.442343812708552e-05, 0.0, 0.0, 32.45471746865046]], 'compliance_tensor': [[11.4, -4.8, -2.7, -0.0, 0.0, 0.0], [-4.8, 11.4, -2.7, -0.0, -0.0, 0.0], [-2.7, -2.7, 10.2, 0.0, 0.0, -0.0], [-0.0, -0.0, 0.0, 14.5, 0.0, 0.0], [-0.0, -0.0, 0.0, 0.0, 14.5, -0.0], [0.0, 0.0, -0.0, -0.0, -0.0, 32.3]], 'warnings': [], 'nsites': 12}",0.0
657,mp-19097,FeBO3,"{'Fe': 1.0, 'B': 1.0, 'O': 3.0}",0.6047509602150205,4.108906898895016,"{'G_Reuss': 88.0, 'G_VRH': 93.0, 'G_Voigt': 97.0, 'G_Voigt_Reuss_Hill': 93.0, 'K_Reuss': 167.0, 'K_VRH': 174.0, 'K_Voigt': 180.0, 'K_Voigt_Reuss_Hill': 174.0, 'elastic_anisotropy': 0.54, 'elastic_tensor': [[367.0, 135.0, 99.0, 22.0, 0.0, 0.0], [135.0, 367.0, 99.0, -22.0, 0.0, 0.0], [99.0, 99.0, 224.0, 0.0, 0.0, 0.0], [22.0, -22.0, 0.0, 79.0, 0.0, 0.0], [0.0, 0.0, 0.0, 0.0, 79.0, 22.0], [0.0, 0.0, 0.0, 0.0, 22.0, 116.0]], 'homogeneous_poisson': 0.27, 'poisson_ratio': 0.27, 'universal_anisotropy': 0.54, 'elastic_tensor_original': [[366.196694113947, 134.4017621684952, 99.40386839307382, -22.834266359905833, 0.0, 0.0], [134.71849340349382, 367.4833135069071, 99.25353913474767, 22.877717909597255, 0.0, 0.0], [98.25098628388074, 98.25091844854883, 223.5911233510855, 0.0, 0.0, 0.0], [-22.8303779833381, 20.96406271488837, -0.5044615546784683, 79.45967425680453, 0.0, 0.0], [0.1178415087294637, 0.0036312522615694447, 0.008557555284199775, -0.007991534935015606, 79.42413166191831, -21.98519436205867], [-6.542669779798493e-05, -5.163013422727127e-05, 4.215668571795176e-05, 1.8076698163980565e-05, -22.260977763714155, 115.79019079534275]], 'compliance_tensor': [[3.5, -1.1, -1.1, -1.3, -0.0, -0.0], [-1.1, 3.5, -1.1, 1.3, 0.0, -0.0], [-1.1, -1.1, 5.4, -0.0, 0.0, 0.0], [-1.3, 1.3, -0.0, 13.3, -0.0, 0.0], [0.0, 0.0, 0.0, -0.0, 13.3, -2.6], [-0.0, -0.0, 0.0, 0.0, -2.6, 9.1]], 'warnings': [], 'nsites': 10}",0.0
658,mp-19225,FeAgO2,"{'Fe': 1.0, 'Ag': 1.0, 'O': 2.0}",0.4799470645391793,6.307568894088196,"{'G_Reuss': 28.0, 'G_VRH': 41.0, 'G_Voigt': 55.0, 'G_Voigt_Reuss_Hill': 41.0, 'K_Reuss': 127.0, 'K_VRH': 131.0, 'K_Voigt': 136.0, 'K_Voigt_Reuss_Hill': 131.0, 'elastic_anisotropy': 4.98, 'elastic_tensor': [[203.0, 70.0, 78.0, 0.0, 0.0, 0.0], [70.0, 203.0, 78.0, -0.0, 0.0, 0.0], [78.0, 78.0, 364.0, 0.0, 0.0, 0.0], [0.0, -0.0, 0.0, 14.0, 0.0, 0.0], [0.0, 0.0, 0.0, 0.0, 14.0, 0.0], [0.0, 0.0, 0.0, 0.0, 0.0, 66.0]], 'homogeneous_poisson': 0.36, 'poisson_ratio': 0.36, 'universal_anisotropy': 4.98, 'elastic_tensor_original': [[202.6190210130527, 70.48596218455329, 78.51599145397618, -0.17808255042471804, 0.0, 0.0], [70.02337949267562, 203.03006062763282, 78.27229739976569, -0.5294200688598742, 0.0, 0.0], [78.06884459790989, 78.06877560317449, 364.4823411985687, 0.0, 0.0, 0.0], [-0.5265391524270309, 0.6953970983420351, 0.07941657474185161, 14.339995543505925, 0.0, 0.0], [-6.067018472350025e-05, -9.766960995754742e-06, -5.300450920299234e-06, -8.547656169629732e-05, 14.194357778484227, -0.6314346738607478], [-0.012144893658365019, -0.002963236608727921, -0.002576422202061139, 0.0017026883652189945, -0.5170663475152012, 65.94030717225208]], 'compliance_tensor': [[5.9, -1.7, -0.9, -0.2, 0.0, -0.0], [-1.7, 5.9, -0.9, 0.2, 0.0, -0.0], [-0.9, -0.9, 3.1, -0.0, -0.0, 0.0], [-0.2, 0.2, -0.0, 70.1, -0.0, 0.0], [0.0, 0.0, -0.0, -0.0, 70.1, -0.4], [-0.0, -0.0, 0.0, 0.0, -0.4, 15.1]], 'warnings': [], 'nsites': 16}",0.0
659,mp-19511,Li5FeO4,"{'Li': 5.0, 'Fe': 1.0, 'O': 4.0}",0.5127219263421147,2.5609401019352585,,0.0
660,mp-19887,Nb(FeGe)6,"{'Nb': 1.0, 'Fe': 6.0, 'Ge': 6.0}",0.16541474875053896,8.082891497392707,,0.0
661,mp-21656,Ta11(FeSe4)2,"{'Ta': 11.0, 'Fe': 2.0, 'Se': 8.0}",0.15921969386389545,11.040976499600706,,0.0
662,mp-22468,Tb2Fe3Si5,"{'Tb': 2.0, 'Fe': 3.0, 'Si': 5.0}",0.12778681773748737,6.9874490239982485,,0.0
663,mp-22698,DyFeSi,"{'Dy': 1.0, 'Fe': 1.0, 'Si': 1.0}",0.17598792325122878,7.731271210689284,"{'G_Reuss': 51.0, 'G_VRH': 55.0, 'G_Voigt': 59.0, 'G_Voigt_Reuss_Hill': 55.0, 'K_Reuss': 89.0, 'K_VRH': 92.0, 'K_Voigt': 94.0, 'K_Voigt_Reuss_Hill': 92.0, 'elastic_anisotropy': 0.89, 'elastic_tensor': [[193.0, 52.0, 60.0, 0.0, 0.0, 0.0], [52.0, 193.0, 60.0, 0.0, 0.0, 0.0], [60.0, 60.0, 114.0, 0.0, 0.0, 0.0], [0.0, 0.0, 0.0, 43.0, 0.0, 0.0], [0.0, 0.0, 0.0, 0.0, 43.0, 0.0], [0.0, 0.0, 0.0, 0.0, 0.0, 103.0]], 'homogeneous_poisson': 0.25, 'poisson_ratio': 0.25, 'universal_anisotropy': 0.89, 'elastic_tensor_original': [[193.2916536602605, 51.94028844036597, 70.42276139962226, 0.0, 0.0, 0.0], [51.94028844036597, 193.2916536602605, 70.42276139962226, 0.0, 0.0, 0.0], [50.19384019779739, 50.19384019779739, 113.94871796571157, 0.0, 0.0, 0.0], [0.0, 0.0, 0.0, 42.53817808988459, 0.0, 0.0], [0.0, 0.0, 0.0, 0.0, 42.53817808988459, 0.0], [1.0272902712204939, -1.0272902712204939, 0.0, 0.0, 0.0, 102.72423520725688]], 'compliance_tensor': [[6.3, -0.8, -2.9, 0.0, 0.0, 0.0], [-0.8, 6.3, -2.9, 0.0, 0.0, 0.0], [-2.9, -2.9, 11.9, 0.0, 0.0, 0.0], [0.0, 0.0, 0.0, 23.5, 0.0, 0.0], [0.0, 0.0, 0.0, 0.0, 23.5, 0.0], [0.0, 0.0, 0.0, 0.0, 0.0, 9.7]], 'warnings': ['Contains a rare earth element'], 'nsites': 6}",0.0
664,mp-28231,Ti2FeO5,"{'Ti': 2.0, 'Fe': 1.0, 'O': 5.0}",0.5202822019509765,4.0282905178558135,,0.0
665,mp-28903,Zr6FeCl14,"{'Zr': 6.0, 'Fe': 1.0, 'Cl': 14.0}",0.07970688250257232,3.1357308024493804,,0.0
666,mp-30073,La(FeSb3)4,"{'La': 1.0, 'Fe': 4.0, 'Sb': 12.0}",0.1183066392181886,7.810118824411757,"{'G_Reuss': 54.0, 'G_VRH': 56.0, 'G_Voigt': 58.0, 'G_Voigt_Reuss_Hill': 56.0, 'K_Reuss': 88.0, 'K_VRH': 88.0, 'K_Voigt': 88.0, 'K_Voigt_Reuss_Hill': 88.0, 'elastic_anisotropy': 0.32, 'elastic_tensor': [[190.0, 37.0, 37.0, 0.0, 0.0, 0.0], [37.0, 189.0, 37.0, 0.0, 0.0, 0.0], [37.0, 37.0, 190.0, 0.0, 0.0, 0.0], [0.0, 0.0, 0.0, 46.0, 0.0, 0.0], [0.0, 0.0, 0.0, 0.0, 46.0, 0.0], [0.0, 0.0, 0.0, 0.0, 0.0, 46.0]], 'homogeneous_poisson': 0.24, 'poisson_ratio': 0.24, 'universal_anisotropy': 0.32, 'elastic_tensor_original': [[189.9706884146232, 37.11799654304896, 36.83810074474099, 0.00011021454014528515, -0.00031576656226088687, 0.00023298034500422284], [36.079535065387496, 188.76834237409096, 36.22337299164614, -0.0007298956831581091, 0.0006150499938621622, -0.00016296539151491892], [37.39747151619777, 37.001439361558994, 189.72950940790577, -0.0017251182549170095, -0.004461502603292824, -0.0011738185269514296], [-0.00621085048678099, -0.006377517166510287, -0.006144967148283825, 45.62311694241824, 0.0, 0.0], [0.0017185301346911745, 0.0017333968025229937, 0.001644113462192094, 0.0, 45.676923133302026, 0.0], [0.01098854752790362, 0.015252837862121126, 0.01387230108725341, 0.0, 0.0, 45.61971085548462]], 'compliance_tensor': [[5.6, -0.9, -0.9, 0.0, -0.0, -0.0], [-0.9, 5.6, -0.9, 0.0, -0.0, -0.0], [-0.9, -0.9, 5.6, 0.0, -0.0, 0.0], [0.0, 0.0, 0.0, 21.9, -0.0, -0.0], [-0.0, -0.0, -0.0, -0.0, 21.9, 0.0], [-0.0, -0.0, 0.0, -0.0, 0.0, 21.9]], 'warnings': ['Contains a rare earth element'], 'nsites': 17}",0.0
667,mp-30551,GaFeCo2,"{'Ga': 1.0, 'Fe': 1.0, 'Co': 2.0}",0.17704786353696056,8.691986889856315,"{'G_Reuss': 68.0, 'G_VRH': 81.0, 'G_Voigt': 94.0, 'G_Voigt_Reuss_Hill': 81.0, 'K_Reuss': 191.0, 'K_VRH': 191.0, 'K_Voigt': 191.0, 'K_Voigt_Reuss_Hill': 191.0, 'elastic_anisotropy': 1.87, 'elastic_tensor': [[244.0, 164.0, 164.0, 0.0, 0.0, 0.0], [164.0, 244.0, 164.0, 0.0, 0.0, 0.0], [164.0, 164.0, 244.0, 0.0, 0.0, 0.0], [0.0, 0.0, 0.0, 130.0, 0.0, 0.0], [0.0, 0.0, 0.0, 0.0, 130.0, 0.0], [0.0, 0.0, 0.0, 0.0, 0.0, 130.0]], 'homogeneous_poisson': 0.31, 'poisson_ratio': 0.31, 'universal_anisotropy': 1.87, 'elastic_tensor_original': [[243.59467822944734, 165.19770611167098, 165.19770611167098, 0.0, 0.0, 0.0], [161.47232216644522, 241.491833620186, 161.47294838199133, -9.894578555843049e-05, 0.0002627526889044036, 0.00034379399898083236], [166.7856390842747, 166.78804724739388, 248.01635095729148, -0.0003864032340283214, -0.0003635863556387287, -0.00033299008461718356], [-0.022761763056206356, -0.02250396934848704, -0.022406685873872546, 129.92296014311117, 0.0, 0.0], [0.00014194020613694664, 0.00014625687907209066, 0.00015230022118114603, 0.0, 129.9230537632471, 0.0], [0.1190022628233217, 0.1177789543800792, 0.12245845450930773, 0.0, 0.0, 129.91307618209035]], 'compliance_tensor': [[8.9, -3.6, -3.6, -0.0, 0.0, 0.0], [-3.6, 8.9, -3.6, -0.0, -0.0, 0.0], [-3.6, -3.6, 8.9, 0.0, 0.0, -0.0], [-0.0, -0.0, 0.0, 7.7, 0.0, -0.0], [0.0, -0.0, 0.0, 0.0, 7.7, -0.0], [0.0, 0.0, -0.0, -0.0, -0.0, 7.7]], 'warnings': [], 'nsites': 4}",0.0
668,mp-3464,FeSiRu2,"{'Fe': 1.0, 'Si': 1.0, 'Ru': 2.0}",0.10981100280290497,9.193008838162205,"{'G_Reuss': 116.0, 'G_VRH': 116.0, 'G_Voigt': 116.0, 'G_Voigt_Reuss_Hill': 116.0, 'K_Reuss': 237.0, 'K_VRH': 237.0, 'K_Voigt': 237.0, 'K_Voigt_Reuss_Hill': 237.0, 'elastic_anisotropy': 0.02, 'elastic_tensor': [[381.0, 165.0, 165.0, 0.0, 0.0, 0.0], [165.0, 381.0, 165.0, 0.0, 0.0, 0.0], [165.0, 165.0, 381.0, 0.0, 0.0, 0.0], [0.0, 0.0, 0.0, 122.0, 0.0, 0.0], [0.0, 0.0, 0.0, 0.0, 122.0, 0.0], [0.0, 0.0, 0.0, 0.0, 0.0, 122.0]], 'homogeneous_poisson': 0.29, 'poisson_ratio': 0.29, 'universal_anisotropy': 0.02, 'elastic_tensor_original': [[381.6878217691501, 165.43687649742193, 165.43687649742193, 0.0, 0.0, 0.0], [163.26731123988114, 379.5113238550269, 163.2698124390819, -0.0004647518835509681, -0.00018417647982308858, -0.000622101874150968], [165.44852075927895, 165.44852075927895, 381.69815645901247, 0.0, 0.0, 0.0], [-0.0006731971020548285, -0.0005150103330837468, -0.0003559335635342125, 121.93749576675788, 0.0, 0.0], [-0.00047993697706441406, -0.0009205139286761899, -0.0007466671495751506, 0.0, 121.93676633628607, 0.0], [1.9594219659284347, -1.9595204459921236, 0.0006977224512563293, 0.0, 0.0, 121.93710929917455]], 'compliance_tensor': [[3.6, -1.1, -1.1, -0.0, 0.0, 0.0], [-1.1, 3.6, -1.1, 0.0, -0.0, 0.0], [-1.1, -1.1, 3.6, 0.0, 0.0, -0.0], [-0.0, 0.0, 0.0, 8.2, -0.0, 0.0], [0.0, -0.0, 0.0, -0.0, 8.2, 0.0], [0.0, 0.0, -0.0, 0.0, 0.0, 8.2]], 'warnings': [], 'nsites': 4}",0.0
669,mp-510133,Sc(Fe2P)2,"{'Sc': 1.0, 'Fe': 4.0, 'P': 2.0}",0.17279952910980645,6.456661473595683,,0.0
670,mp-5288,Y(FeSi)2,"{'Y': 1.0, 'Fe': 2.0, 'Si': 2.0}",0.14956770032236896,5.6830162683780205,"{'G_Reuss': 79.0, 'G_VRH': 80.0, 'G_Voigt': 81.0, 'G_Voigt_Reuss_Hill': 80.0, 'K_Reuss': 140.0, 'K_VRH': 140.0, 'K_Voigt': 140.0, 'K_Voigt_Reuss_Hill': 140.0, 'elastic_anisotropy': 0.13, 'elastic_tensor': [[245.0, 85.0, 98.0, 0.0, 0.0, 0.0], [85.0, 245.0, 98.0, 0.0, 0.0, 0.0], [98.0, 98.0, 208.0, 0.0, 0.0, 0.0], [0.0, 0.0, 0.0, 88.0, 0.0, 0.0], [0.0, 0.0, 0.0, 0.0, 88.0, 0.0], [0.0, 0.0, 0.0, 0.0, 0.0, 88.0]], 'homogeneous_poisson': 0.26, 'poisson_ratio': 0.26, 'universal_anisotropy': 0.13, 'elastic_tensor_original': [[244.6118549812207, 84.77284025730614, 97.80261490632682, 0.0, 0.0, 0.0], [84.70908573974012, 244.9670703818879, 97.80231290772744, 0.0, 0.0, 0.0], [97.97236549938455, 97.97236549938455, 208.43836002509408, 0.0, 0.0, 0.0], [-0.0003003299151258677, -2.4806659655081253e-05, -0.0002766065884978494, 88.18502578562925, 0.0, 0.0], [5.1809985360801035e-05, 0.0001501999575539403, -0.0006089798279025632, 0.0, 88.1852244255731, 0.0], [0.00022395330320265012, 0.00021013663839454988, 9.753332020766408e-06, 0.0, 0.0, 87.55598480690954]], 'compliance_tensor': [[5.2, -1.0, -2.0, -0.0, -0.0, -0.0], [-1.0, 5.2, -2.0, -0.0, 0.0, 0.0], [-2.0, -2.0, 6.7, 0.0, -0.0, -0.0], [-0.0, -0.0, 0.0, 11.3, -0.0, -0.0], [-0.0, 0.0, -0.0, -0.0, 11.3, -0.0], [-0.0, 0.0, -0.0, -0.0, -0.0, 11.4]], 'warnings': [], 'nsites': 5}",0.0
671,mp-541557,Lu2Fe3Si5,"{'Lu': 2.0, 'Fe': 3.0, 'Si': 5.0}",0.13718903418045206,7.691256100770058,,0.0
672,mp-555287,Rb3FeO3,"{'Rb': 3.0, 'Fe': 1.0, 'O': 3.0}",0.5706925449213707,4.006224492904707,,0.0
673,mp-555758,Eu3Fe5O12,"{'Eu': 3.0, 'Fe': 5.0, 'O': 12.0}",0.5257949189066955,5.98895244651412,,0.0
674,mp-560126,Fe4(P2O7)3,"{'Fe': 4.0, 'P': 6.0, 'O': 21.0}",0.4820258593532759,3.13074107639436,,0.0
675,mp-566717,Fe2BO4,"{'Fe': 2.0, 'B': 1.0, 'O': 4.0}",0.5393884697352924,4.283603728115561,,0.0
676,mp-567859,Sm(FeSi)2,"{'Sm': 1.0, 'Fe': 2.0, 'Si': 2.0}",0.18521809374281095,6.851253418547347,,0.0
677,mp-571500,Ho(FeB)2,"{'Ho': 1.0, 'Fe': 2.0, 'B': 2.0}",0.1735182706004257,8.189445893753442,"{'G_Reuss': 75.0, 'G_VRH': 77.0, 'G_Voigt': 78.0, 'G_Voigt_Reuss_Hill': 77.0, 'K_Reuss': 100.0, 'K_VRH': 100.0, 'K_Voigt': 100.0, 'K_Voigt_Reuss_Hill': 100.0, 'elastic_anisotropy': 0.22, 'elastic_tensor': [[200.0, 31.0, 64.0, 0.0, 0.0, 0.0], [31.0, 200.0, 64.0, 0.0, 0.0, 0.0], [64.0, 64.0, 185.0, 0.0, 0.0, 0.0], [0.0, 0.0, 0.0, 71.0, 0.0, 0.0], [0.0, 0.0, 0.0, 0.0, 71.0, 0.0], [0.0, 0.0, 0.0, 0.0, 0.0, 107.0]], 'homogeneous_poisson': 0.19, 'poisson_ratio': 0.19, 'universal_anisotropy': 0.22, 'elastic_tensor_original': [[199.75693819966702, 30.9564106744285, 69.74631313862783, 0.0, -1.5000313257213257e-05, 0.0], [30.956410674430273, 199.7569381996545, 69.7463131386246, -5.584380146944879e-08, -1.4944469453753904e-05, 0.0], [58.1104377551968, 58.1104377551968, 185.15254499335623, 0.0, -3.939972957737032e-05, 0.0], [0.0, 0.0, 0.0, 71.28049535916773, -4.791158066617394e-08, -1.5273194564616284e-05], [-3.054640841708799e-05, 0.0, 0.0, 4.7911580729856194e-08, 71.28049535916774, 0.0], [1.0742353864671694, -1.0742353864562255, 0.0, 2.492065450320793e-07, -2.492065449658247e-07, 107.41741548414649]], 'compliance_tensor': [[5.6, -0.3, -1.9, 0.0, 0.0, -0.0], [-0.3, 5.6, -1.9, -0.0, -0.0, -0.0], [-1.9, -1.9, 6.7, -0.0, 0.0, 0.0], [0.0, -0.0, -0.0, 14.0, -0.0, 0.0], [0.0, -0.0, 0.0, -0.0, 14.0, -0.0], [-0.0, -0.0, 0.0, 0.0, -0.0, 9.3]], 'warnings': ['Contains a rare earth element'], 'nsites': 5}",0.0
678,mp-582295,La(FeP3)4,"{'La': 1.0, 'Fe': 4.0, 'P': 12.0}",0.10661366479866313,5.098254052357239,,0.0
679,mp-605437,FeHO2,"{'Fe': 1.0, 'H': 1.0, 'O': 2.0}",0.5426795602065214,4.137124657725762,,0.0
680,mp-624243,Fe6W6C,"{'Fe': 6.0, 'W': 6.0, 'C': 1.0}",0.16561046555007208,14.764482272357071,,0.0