,mp_id,Formula,Composition,IPF,Density,Elastic_Tensor,E_above_Hull
1070,mp-721077,CsFeH24(SeO10)2,"{'Cs': 1.0, 'Fe': 1.0, 'H': 24.0, 'Se': 2.0, 'O': 20.0}",0.3907334446324911,2.200135674182547,,0.0
1071,mp-743566,MnFe2Sb2(PO4)6,"{'Mn': 1.0, 'Fe': 2.0, 'Sb': 2.0, 'P': 6.0, 'O': 24.0}",0.46749425998419714,3.515418267344591,,0.0
1072,mp-744266,Sr20Fe3Co7(MoO6)10,"{'Sr': 20.0, 'Fe': 3.0, 'Co': 7.0, 'Mo': 10.0, 'O': 60.0}",0.5743567809562505,5.509607126269193,,0.4249423499986804
1073,mp-744814,RbFeP2(HO4)2,"{'Rb': 1.0, 'Fe': 1.0, 'P': 2.0, 'H': 2.0, 'O': 8.0}",0.5081168556043042,3.118070257349304,,0.0
1074,mp-758220,Mn2V3Fe(PO4)6,"{'Mn': 2.0, 'V': 3.0, 'Fe': 1.0, 'P': 6.0, 'O': 24.0}",0.4744708550990416,3.2394298165300155,,0.0
1075,mp-771144,Na3FeAsCO7,"{'Na': 3.0, 'Fe': 1.0, 'As': 1.0, 'C': 1.0, 'O': 7.0}",0.4892994501204923,3.2007342531186667,,0.0
1076,mp-771337,Na3FePCO7,"{'Na': 3.0, 'Fe': 1.0, 'P': 1.0, 'C': 1.0, 'O': 7.0}",0.5088682613662168,2.8947388374733314,,0.0
1077,mp-776163,Li8NbFe7(PO4)12,"{'Li': 8.0, 'Nb': 1.0, 'Fe': 7.0, 'P': 12.0, 'O': 48.0}",0.4859373592107163,2.9745703979979248,,0.0
1078,mp-776746,Li8Fe7Sb(PO4)12,"{'Li': 8.0, 'Fe': 7.0, 'Sb': 1.0, 'P': 12.0, 'O': 48.0}",0.4884075798583389,3.0404980836234974,,0.0
1079,mp-778476,Li6Mn5Fe(BO3)6,"{'Li': 6.0, 'Mn': 5.0, 'Fe': 1.0, 'B': 6.0, 'O': 18.0}",0.4748044738028801,3.1902920215275903,,0.9312716269933574
1080,mp-780739,Ca2FeP2(H2O3)4,"{'Ca': 2.0, 'Fe': 1.0, 'P': 2.0, 'H': 8.0, 'O': 12.0}",0.4819605987323313,2.723619060593216,,0.0
1081,mp-1173765,Na2TiFe(PO4)3,"{'Na': 2.0, 'Ti': 1.0, 'Fe': 1.0, 'P': 3.0, 'O': 12.0}",0.5003956778049402,2.986977266857253,,0.0
1082,mp-1198461,Na5FeP2(O4F)2,"{'Na': 5.0, 'Fe': 1.0, 'P': 2.0, 'O': 8.0, 'F': 2.0}",0.47128855710270284,2.92591215286349,,0.0
1083,mp-1198664,Cs3CaFe(P2O7)2,"{'Cs': 3.0, 'Ca': 1.0, 'Fe': 1.0, 'P': 4.0, 'O': 14.0}",0.491739572627913,3.3821317532893405,,0.0
1084,mp-1201490,Rb7GdFe6(P4O17)2,"{'Rb': 7.0, 'Gd': 1.0, 'Fe': 6.0, 'P': 8.0, 'O': 34.0}",0.5269399230725594,3.6982473255009833,,0.0
1085,mp-1209639,RbLaZr6FeCl18,"{'Rb': 1.0, 'La': 1.0, 'Zr': 6.0, 'Fe': 1.0, 'Cl': 18.0}",0.10122528283233138,3.0694408934105644,,0.0
1086,mp-1214725,Ba2CaFe2CoF14,"{'Ba': 2.0, 'Ca': 1.0, 'Fe': 2.0, 'Co': 1.0, 'F': 14.0}",0.2159873941247091,4.377526871495757,,0.0
1087,mp-1218841,Sr2Fe3Sb(PO4)6,"{'Sr': 2.0, 'Fe': 3.0, 'Sb': 1.0, 'P': 6.0, 'O': 24.0}",0.4777260192396269,3.495685148751714,,0.39786902777638744
1088,mp-1219428,Sc2FeB2RuRh4,"{'Sc': 2.0, 'Fe': 1.0, 'B': 2.0, 'Ru': 1.0, 'Rh': 4.0}",0.1285909768190649,8.483494075274793,,0.0
1089,mp-1221002,Na7Mn4Fe8(PO4)12,"{'Na': 7.0, 'Mn': 4.0, 'Fe': 8.0, 'P': 12.0, 'O': 48.0}",0.5249788205639809,3.5602285772812183,,0.0
1090,mp-1321185,Ca2MgFe(CO3)4,"{'Ca': 2.0, 'Mg': 1.0, 'Fe': 1.0, 'C': 4.0, 'O': 12.0}",0.5283282174849289,2.9595780496665807,,0.7425338749991184
1091,mp-1575580,K3FePCO7,"{'K': 3.0, 'Fe': 1.0, 'P': 1.0, 'C': 1.0, 'O': 7.0}",0.5531796197831071,2.83834141387575,,0.0
1092,mp-24220,Cs2FeH12(SO7)2,"{'H': 12.0, 'O': 14.0, 'S': 2.0, 'Fe': 1.0, 'Cs': 2.0}",0.4614239685764042,2.7182867064572744,,0.16210790322901403
1093,mp-532656,K2FeSn(PO4)3,"{'K': 2.0, 'Fe': 1.0, 'Sn': 1.0, 'P': 3.0, 'O': 12.0}",0.5329063880785326,3.471594723730746,,0.0
1094,mp-542912,FeH12Pt(ClO)6,"{'Fe': 1.0, 'H': 12.0, 'Pt': 1.0, 'Cl': 6.0, 'O': 6.0}",0.18362388195948504,2.6026595320963093,,0.0
1095,mp-604429,NaFe3H6(SO7)2,"{'Na': 1.0, 'Fe': 3.0, 'H': 6.0, 'S': 2.0, 'O': 14.0}",0.5172694816394052,3.031328033422928,,0.0
1096,mp-684724,FeH4S2NO8,"{'Fe': 1.0, 'H': 4.0, 'S': 2.0, 'N': 1.0, 'O': 8.0}",0.4374057099540033,2.5294239764617537,,0.0
1097,mp-706242,Sr20FeCo9(MoO6)10,"{'Sr': 20.0, 'Fe': 1.0, 'Co': 9.0, 'Mo': 10.0, 'O': 60.0}",0.5718823817318394,5.504239226283261,,0.46389551667314066
1098,mp-720269,Sr20Fe9Co(MoO6)10,"{'Sr': 20.0, 'Fe': 9.0, 'Co': 1.0, 'Mo': 10.0, 'O': 60.0}",0.5789793303988178,5.498580561876409,,0.0
1099,mp-721924,CaFe3Si2HO9,"{'Ca': 1.0, 'Fe': 3.0, 'Si': 2.0, 'H': 1.0, 'O': 9.0}",0.5205967741636282,3.8951973127434454,,0.07387770832600893
1100,mp-746739,SrFe3P4HO16,"{'Sr': 1.0, 'Fe': 3.0, 'P': 4.0, 'H': 1.0, 'O': 16.0}",0.4916479905461041,3.3659004237541943,,0.0
1101,mp-752490,LiVFe(P2O7)2,"{'Li': 1.0, 'V': 1.0, 'Fe': 1.0, 'P': 4.0, 'O': 14.0}",0.4804040909188086,2.883357193744634,,0.6265224107275813
1102,mp-754463,Na2FePCO7,"{'Na': 2.0, 'Fe': 1.0, 'P': 1.0, 'C': 1.0, 'O': 7.0}",0.485985045790618,2.75821446612367,,0.0
1103,mp-755476,K3FePCO7,"{'K': 3.0, 'Fe': 1.0, 'P': 1.0, 'C': 1.0, 'O': 7.0}",0.5576225594926781,2.861137951069171,,0.9801096153880806
1104,mp-758577,Li8VFe7(PO4)12,"{'Li': 8.0, 'V': 1.0, 'Fe': 7.0, 'P': 12.0, 'O': 48.0}",0.4929114151015149,2.944050623077546,,0.0
1105,mp-764299,Li2VFe(P2O7)2,"{'Li': 2.0, 'V': 1.0, 'Fe': 1.0, 'P': 4.0, 'O': 14.0}",0.48470661854210917,2.883968518155653,,0.0
1106,mp-764318,Li2VFe(P2O7)2,"{'Li': 2.0, 'V': 1.0, 'Fe': 1.0, 'P': 4.0, 'O': 14.0}",0.48595524834816584,2.89139777311885,,0.42617636360731126
1107,mp-765981,LiVFe(P2O7)2,"{'Li': 1.0, 'V': 1.0, 'Fe': 1.0, 'P': 4.0, 'O': 14.0}",0.478061251334146,2.8692956078882212,,0.7375431250133957
1108,mp-766101,Li2FeP2HO8,"{'Li': 2.0, 'Fe': 1.0, 'P': 2.0, 'H': 1.0, 'O': 8.0}",0.5307022419013214,2.9784010578174853,,0.0
1109,mp-766130,Li4MnFe3(PO4)4,"{'Li': 4.0, 'Mn': 1.0, 'Fe': 3.0, 'P': 4.0, 'O': 16.0}",0.5181386021598141,3.4314252833441574,,0.7918967445101899
1110,mp-774362,Li6Mn5Fe(BO3)6,"{'Li': 6.0, 'Mn': 5.0, 'Fe': 1.0, 'B': 6.0, 'O': 18.0}",0.47459740594824307,3.188900697390999,,0.9481691269916936
1111,mp-774368,Li6Mn5Fe(BO3)6,"{'Li': 6.0, 'Mn': 5.0, 'Fe': 1.0, 'B': 6.0, 'O': 18.0}",0.47441942840549184,3.1877048360080966,,0.7229560714376859
1112,mp-849356,Li4Mn3Fe(PO4)4,"{'Li': 4.0, 'Mn': 3.0, 'Fe': 1.0, 'P': 4.0, 'O': 16.0}",0.5003723128651133,3.3661698352424763,,0.6271674725377707
1113,mp-849382,Li16Mn15Fe(PO4)16,"{'Li': 16.0, 'Mn': 15.0, 'Fe': 1.0, 'P': 16.0, 'O': 64.0}",0.4938599445388047,3.342258058389622,,0.0
1114,mp-850228,Li6Mn5Fe(BO3)6,"{'Li': 6.0, 'Mn': 5.0, 'Fe': 1.0, 'B': 6.0, 'O': 18.0}",0.47490333356156966,3.1909562770618134,,0.7388205158829209
1115,mp-1173728,Na2MnCdFe(PO4)3,"{'Na': 2.0, 'Mn': 1.0, 'Cd': 1.0, 'Fe': 1.0, 'P': 3.0, 'O': 12.0}",0.5227221455396212,3.8513319400401023,,0.0
1116,mp-1177545,Li3VFeP2(O4F)2,"{'Li': 3.0, 'V': 1.0, 'Fe': 1.0, 'P': 2.0, 'O': 8.0, 'F': 2.0}",0.45594164054506525,3.163679373128394,,0.0
1117,mp-1181575,K3Na8FeH12S6(NO18)2,"{'K': 3.0, 'Na': 8.0, 'Fe': 1.0, 'H': 12.0, 'S': 6.0, 'N': 2.0, 'O': 36.0}",0.47241076379267655,2.177431936886434,,0.0
1118,mp-1190340,Ba3TaFe3(SiO7)2,"{'Ba': 3.0, 'Ta': 1.0, 'Fe': 3.0, 'Si': 2.0, 'O': 14.0}",0.4932950555552211,5.0056204214117015,,0.0
1119,mp-1190513,FeH5CN(ClO)2,"{'Fe': 1.0, 'H': 5.0, 'C': 1.0, 'N': 1.0, 'Cl': 2.0, 'O': 2.0}",0.15791941358374018,2.032426348561905,,0.0
1120,mp-1190551,Na2FeSO4F3,"{'Na': 2.0, 'Fe': 1.0, 'S': 1.0, 'O': 4.0, 'F': 3.0}",0.39259521733262737,2.9437383812704296,,0.0
1121,mp-1190639,CsK2Fe3P4ClO14,"{'Cs': 1.0, 'K': 2.0, 'Fe': 3.0, 'P': 4.0, 'Cl': 1.0, 'O': 14.0}",0.4682723582979128,3.2178750138374954,,0.0
1122,mp-1221075,NaCaMgFe(SiO3)4,"{'Na': 1.0, 'Ca': 1.0, 'Mg': 1.0, 'Fe': 1.0, 'Si': 4.0, 'O': 12.0}",0.5372492790969026,3.294545886021338,,0.0
1123,mp-1223617,KMg2AlFeSi3(HO6)2,"{'K': 1.0, 'Mg': 2.0, 'Al': 1.0, 'Fe': 1.0, 'Si': 3.0, 'H': 2.0, 'O': 12.0}",0.4791828696131649,2.8241079206428648,,0.6019608996146175
1124,mp-1223658,KAl3Fe2Si2(HO6)2,"{'K': 1.0, 'Al': 3.0, 'Fe': 2.0, 'Si': 2.0, 'H': 2.0, 'O': 12.0}",0.48005139673076286,3.057711260974196,,0.0
1125,mp-1224604,K2Na4Li2Ti4Mn3Fe(SiO3)16,"{'K': 2.0, 'Na': 4.0, 'Li': 2.0, 'Ti': 4.0, 'Mn': 3.0, 'Fe': 1.0, 'Si': 16.0, 'O': 48.0}",0.5012690419028207,3.0756054702351783,,0.38386462498607443
1126,mp-1296207,FePH6NO5,"{'Fe': 1.0, 'P': 1.0, 'H': 6.0, 'N': 1.0, 'O': 5.0}",0.3713738152871028,2.492451033094023,,0.1106682142859583
1127,mp-16283,KNa2Li3Fe2(Si2O5)6,"{'K': 1.0, 'Na': 2.0, 'Li': 3.0, 'Fe': 2.0, 'Si': 12.0, 'O': 30.0}",0.4682864521953883,2.6690055829000254,,0.0
1128,mp-24648,RbFeBP2HO9,"{'Rb': 1.0, 'Fe': 1.0, 'B': 1.0, 'P': 2.0, 'H': 1.0, 'O': 9.0}",0.5077931794491647,3.0629448889645077,,0.0
1129,mp-556871,Na3Fe2P2O8F3,"{'Na': 3.0, 'Fe': 2.0, 'P': 2.0, 'O': 8.0, 'F': 3.0}",0.4310270723811603,3.1345882910357497,,0.0
1130,mp-735523,Fe3PH6PbSO14,"{'Fe': 3.0, 'P': 1.0, 'H': 6.0, 'Pb': 1.0, 'S': 1.0, 'O': 14.0}",0.5007011899892225,4.126058024646778,,0.0
1131,mp-755968,Na5LiFe2P2(CO7)2,"{'Na': 5.0, 'Li': 1.0, 'Fe': 2.0, 'P': 2.0, 'C': 2.0, 'O': 14.0}",0.5106755929210881,2.8832116326646378,,0.0
1132,mp-768938,Na5LiFe2P2(CO7)2,"{'Na': 5.0, 'Li': 1.0, 'Fe': 2.0, 'P': 2.0, 'C': 2.0, 'O': 14.0}",0.5153089873888664,2.9093712083588827,,0.7371396153850185
1133,mp-772415,Na2FeAsCO7,"{'Na': 2.0, 'Fe': 1.0, 'As': 1.0, 'C': 1.0, 'O': 7.0}",0.45225288753612997,2.985864466148818,,0.0
1134,mp-774370,Li6Mn5Fe(BO3)6,"{'Li': 6.0, 'Mn': 5.0, 'Fe': 1.0, 'B': 6.0, 'O': 18.0}",0.47483317046003815,3.190484839248204,,0.6995985714359776
1135,mp-775195,Li12Mn11Fe(PO4)12,"{'Li': 12.0, 'Mn': 11.0, 'Fe': 1.0, 'P': 12.0, 'O': 48.0}",0.49452166191455293,3.3445084195898778,,0.08052741759811965
1136,mp-849430,Li8MnFe7(PO4)8,"{'Li': 8.0, 'Mn': 1.0, 'Fe': 7.0, 'P': 8.0, 'O': 32.0}",0.5247901019556881,3.4620499041372716,,0.26451107143188324