,mp_id,Formula,Composition,IPF,Density,Elastic_Tensor,E_above_Hull
50,mp-305,TiFe,"{'Ti': 1.0, 'Fe': 1.0}",0.1998886594219398,6.642034495803114,"{'G_Reuss': 92.0, 'G_VRH': 97.0, 'G_Voigt': 102.0, 'G_Voigt_Reuss_Hill': 97.0, 'K_Reuss': 194.0, 'K_VRH': 194.0, 'K_Voigt': 194.0, 'K_Voigt_Reuss_Hill': 194.0, 'elastic_anisotropy': 0.55, 'elastic_tensor': [[386.0, 98.0, 98.0, 0.0, 0.0, 0.0], [98.0, 386.0, 98.0, 0.0, 0.0, 0.0], [98.0, 98.0, 386.0, 0.0, 0.0, 0.0], [0.0, 0.0, 0.0, 74.0, 0.0, 0.0], [0.0, 0.0, 0.0, 0.0, 74.0, 0.0], [0.0, 0.0, 0.0, 0.0, 0.0, 74.0]], 'homogeneous_poisson': 0.29, 'poisson_ratio': 0.29, 'universal_anisotropy': 0.55, 'elastic_tensor_original': [[385.7232881106923, 98.04473157533569, 98.04473157533569, 0.0, 0.0, 0.0], [98.04493526578352, 385.7223736986999, 98.04493526578352, 0.0, 0.0, 0.0], [98.03981738535717, 98.03981738535717, 385.71740032593345, 0.0, 0.0, 0.0], [0.00013806984340893364, 9.633317727118505e-05, 2.5696418974071768e-05, 74.17113891029258, 0.0, 0.0], [0.0002286084675952127, 0.0002626291197113069, 0.0001627891661207503, 0.0, 74.17142509907343, 0.0], [0.0002540060773320343, 0.0003202897775809058, 0.00026552673921772347, 0.0, 0.0, 74.1712232801221]], 'compliance_tensor': [[2.9, -0.6, -0.6, -0.0, 0.0, 0.0], [-0.6, 2.9, -0.6, 0.0, -0.0, -0.0], [-0.6, -0.6, 2.9, -0.0, 0.0, -0.0], [-0.0, 0.0, -0.0, 13.5, -0.0, 0.0], [0.0, -0.0, 0.0, -0.0, 13.5, 0.0], [0.0, -0.0, -0.0, 0.0, 0.0, 13.5]], 'warnings': [], 'nsites': 2}",0.0
51,mp-30634,HoFe3,"{'Ho': 1.0, 'Fe': 3.0}",0.20707138727795177,9.1373884034578,,0.0
52,mp-30639,Th2Fe7,"{'Th': 2.0, 'Fe': 7.0}",0.20406562060829866,10.08786965700612,,0.0
53,mp-556911,FeF2,"{'Fe': 1.0, 'F': 2.0}",0.144358749947598,4.06729773452724,"{'G_Reuss': 29.0, 'G_VRH': 33.0, 'G_Voigt': 38.0, 'G_Voigt_Reuss_Hill': 33.0, 'K_Reuss': 96.0, 'K_VRH': 97.0, 'K_Voigt': 98.0, 'K_Voigt_Reuss_Hill': 97.0, 'elastic_anisotropy': 1.62, 'elastic_tensor': [[160.0, 78.0, 78.0, 0.0, 0.0, 0.0], [78.0, 116.0, 87.0, 0.0, 0.0, 0.0], [78.0, 87.0, 116.0, 0.0, 0.0, 0.0], [0.0, 0.0, 0.0, 77.0, 0.0, 0.0], [0.0, 0.0, 0.0, 0.0, 32.0, 0.0], [0.0, 0.0, 0.0, 0.0, 0.0, 32.0]], 'homogeneous_poisson': 0.35, 'poisson_ratio': 0.35, 'universal_anisotropy': 1.62, 'elastic_tensor_original': [[116.15060237000269, 87.17781056968106, 78.60933756512713, 0.0, 0.0, 0.0], [87.17992671523356, 116.1511515734028, 78.61127441004203, 0.0, 0.0, 0.0], [77.94973171294232, 77.94973171294232, 160.16874031625497, 0.0, 0.0, 0.0], [0.00019926682748822106, 0.00039419687574439977, 5.1660123099748714e-05, 31.633376860005452, 0.0, 0.0], [-0.00014812661904965664, 0.0001884236577851294, 0.00014125351255241518, 0.0, 31.633295982947235, 0.0], [-0.00019724687608314853, -8.314342565307546e-05, -9.085661132126118e-05, 0.0, 0.0, 76.9398619397899]], 'compliance_tensor': [[10.0, -3.9, -3.9, -0.0, 0.0, -0.0], [-3.9, 21.2, -13.3, -0.0, 0.0, 0.0], [-3.9, -13.3, 21.2, 0.0, -0.0, -0.0], [-0.0, -0.0, 0.0, 13.0, -0.0, -0.0], [0.0, 0.0, -0.0, -0.0, 31.6, 0.0], [-0.0, 0.0, -0.0, -0.0, 0.0, 31.6]], 'warnings': [], 'nsites': 6}",0.0
54,mp-558852,FeF3,"{'Fe': 1.0, 'F': 3.0}",0.1170207291147536,3.133077415815626,"{'G_Reuss': 38.0, 'G_VRH': 49.0, 'G_Voigt': 61.0, 'G_Voigt_Reuss_Hill': 49.0, 'K_Reuss': 104.0, 'K_VRH': 104.0, 'K_Voigt': 104.0, 'K_Voigt_Reuss_Hill': 104.0, 'elastic_anisotropy': 3.06, 'elastic_tensor': [[255.0, 29.0, 29.0, 0.0, 0.0, 0.0], [29.0, 255.0, 29.0, 0.0, 0.0, 0.0], [29.0, 29.0, 255.0, 0.0, 0.0, 0.0], [0.0, 0.0, 0.0, 26.0, 0.0, 0.0], [0.0, 0.0, 0.0, 0.0, 26.0, 0.0], [0.0, 0.0, 0.0, 0.0, 0.0, 26.0]], 'homogeneous_poisson': 0.3, 'poisson_ratio': 0.3, 'universal_anisotropy': 3.06, 'elastic_tensor_original': [[254.5875400413865, 28.637929968724222, 28.637929968724222, 0.0, 0.0, 0.0], [28.63430617383784, 254.58294382408144, 28.63430617383784, 0.0, 0.0, 0.0], [28.641894338862784, 28.641894338862784, 254.58989252295234, 0.0, 0.0, 0.0], [-0.0005758320787168787, -0.00034932519261268583, -0.0006190190839498616, 26.178263122392643, 0.0, 0.0], [-0.0005537273897572095, -0.0006715843229005024, -0.0007148511565923158, 0.0, 26.17824052906612, 0.0], [0.00049939544476902, 0.0005507622161821475, 0.0004932423297555433, 0.0, 0.0, 26.17820016573443]], 'compliance_tensor': [[4.0, -0.4, -0.4, -0.0, 0.0, 0.0], [-0.4, 4.0, -0.4, -0.0, -0.0, 0.0], [-0.4, -0.4, 4.0, 0.0, -0.0, 0.0], [-0.0, -0.0, 0.0, 38.2, -0.0, 0.0], [0.0, -0.0, -0.0, -0.0, 38.2, 0.0], [0.0, 0.0, 0.0, 0.0, 0.0, 38.2]], 'warnings': [], 'nsites': 4}",0.0
55,mp-559450,FeF3,"{'Fe': 1.0, 'F': 3.0}",0.09724293181379588,2.6035526852232795,,0.07881812499999086
56,mp-568006,DyFe5,"{'Dy': 1.0, 'Fe': 5.0}",0.22184363095015303,8.548117600189117,"{'G_Reuss': 64.0, 'G_VRH': 65.0, 'G_Voigt': 66.0, 'G_Voigt_Reuss_Hill': 65.0, 'K_Reuss': 80.0, 'K_VRH': 86.0, 'K_Voigt': 92.0, 'K_Voigt_Reuss_Hill': 86.0, 'elastic_anisotropy': 0.32, 'elastic_tensor': [[142.0, 24.0, 58.0, 0.0, 0.0, 0.0], [24.0, 142.0, 58.0, 0.0, 0.0, 0.0], [58.0, 58.0, 263.0, 0.0, 0.0, 0.0], [0.0, 0.0, 0.0, 68.0, 0.0, 0.0], [0.0, 0.0, 0.0, 0.0, 68.0, 0.0], [0.0, 0.0, 0.0, 0.0, 0.0, 59.0]], 'homogeneous_poisson': 0.2, 'poisson_ratio': 0.2, 'universal_anisotropy': 0.32, 'elastic_tensor_original': [[143.91870726723383, 25.48500216037852, 73.15208918082901, 0.0, 0.0, 0.5891165804659813], [25.564712558309395, 137.01389880679392, 69.01481588627146, 0.0, 0.0, -0.8682044241765778], [45.36403065967273, 45.086835485300504, 263.3652979586597, 0.0, 0.0, 1.0096905491759043], [0.0, 0.0, 0.0, 68.71706946572259, 1.2037609174071577, 0.0], [0.0, 0.0, 0.0, 0.6643506230687682, 68.16376518522858, 0.0], [0.0008403296760596772, 0.0008401156493611867, -1.371199106250112e-10, 0.0, 0.0, 60.970791190434106]], 'compliance_tensor': [[7.8, -0.7, -1.6, 0.0, 0.0, -0.0], [-0.7, 7.8, -1.6, 0.0, 0.0, -0.0], [-1.6, -1.6, 4.5, 0.0, 0.0, 0.0], [0.0, 0.0, 0.0, 14.6, -0.0, 0.0], [0.0, 0.0, 0.0, -0.0, 14.6, 0.0], [-0.0, -0.0, 0.0, 0.0, 0.0, 16.9]], 'warnings': ['Contains a rare earth element'], 'nsites': 6}",0.0
57,mp-568077,TaFe2,"{'Ta': 1.0, 'Fe': 2.0}",0.19327346453639424,12.522527213669704,"{'G_Reuss': 92.0, 'G_VRH': 93.0, 'G_Voigt': 93.0, 'G_Voigt_Reuss_Hill': 93.0, 'K_Reuss': 228.0, 'K_VRH': 228.0, 'K_Voigt': 229.0, 'K_Voigt_Reuss_Hill': 228.0, 'elastic_anisotropy': 0.06, 'elastic_tensor': [[350.0, 167.0, 157.0, 0.0, 0.0, 1.0], [167.0, 349.0, 157.0, 0.0, 0.0, -0.0], [157.0, 157.0, 397.0, 0.0, 0.0, -0.0], [0.0, 0.0, 0.0, 85.0, 0.0, 0.0], [0.0, 0.0, 0.0, 0.0, 85.0, 0.0], [1.0, -0.0, -0.0, 0.0, 0.0, 92.0]], 'homogeneous_poisson': 0.32, 'poisson_ratio': 0.32, 'universal_anisotropy': 0.06, 'elastic_tensor_original': [[349.9349100090709, 167.19941489749513, 156.28045024342333, 0.0, 0.0, -6.4333598323310815e-06], [167.68709762748153, 347.44990542194074, 157.30766946150618, 0.0, 0.0, 4.189315436843054e-05], [157.91735708334608, 157.9173114032757, 396.58363837809003, 0.0, 0.0, 1.9000063056337093e-05], [0.09219878731898527, 0.0769871795158181, 0.06420882103531445, 84.65390810659497, 1.0193329041521327e-05, 6.666669163725204e-09], [-0.003492195597340352, -0.003225192600622717, -0.0032595058906968446, -3.999994957152353e-08, 84.64874049552334, 0.0], [-0.18364418389686382, -0.25066960168264135, 0.004610304412510821, 0.0, 0.0, 92.27557288061833]], 'compliance_tensor': [[4.0, -1.5, -1.0, 0.0, 0.0, -0.0], [-1.5, 4.0, -1.0, 0.0, 0.0, 0.0], [-1.0, -1.0, 3.3, 0.0, 0.0, 0.0], [0.0, 0.0, 0.0, 11.8, 0.0, 0.0], [0.0, 0.0, 0.0, 0.0, 11.8, 0.0], [-0.0, 0.0, 0.0, 0.0, 0.0, 10.9]], 'warnings': [], 'nsites': 12}",0.0
58,mp-569783,ErFe3,"{'Er': 1.0, 'Fe': 3.0}",0.20733865812162172,9.323725070645695,,0.0
59,mp-570001,Al6Fe,"{'Al': 6.0, 'Fe': 1.0}",0.09789489323990883,3.428138268710325,"{'G_Reuss': 53.0, 'G_VRH': 56.0, 'G_Voigt': 58.0, 'G_Voigt_Reuss_Hill': 56.0, 'K_Reuss': 106.0, 'K_VRH': 106.0, 'K_Voigt': 106.0, 'K_Voigt_Reuss_Hill': 106.0, 'elastic_anisotropy': 0.46, 'elastic_tensor': [[224.0, 63.0, 49.0, 0.0, 0.0, 0.0], [63.0, 161.0, 80.0, 0.0, 0.0, 0.0], [49.0, 80.0, 189.0, 0.0, 0.0, 0.0], [0.0, 0.0, 0.0, 64.0, 0.0, 0.0], [0.0, 0.0, 0.0, 0.0, 63.0, 0.0], [0.0, 0.0, 0.0, 0.0, 0.0, 35.0]], 'homogeneous_poisson': 0.28, 'poisson_ratio': 0.28, 'universal_anisotropy': 0.46, 'elastic_tensor_original': [[224.3304903440594, 45.91477449994608, 61.33681587398955, 0.0, 0.0, 0.0], [51.466451273922004, 188.7317716356934, 81.16967884724983, 0.0, 0.0, 0.0], [63.79226271754818, 78.48308051278761, 160.59881507997943, 0.0, 0.0, 0.0], [-0.2475364577835478, -0.24740020104837726, -0.24996026233546106, 64.21934953327174, 0.0, 0.0], [0.33631488805496856, 0.33107282369444685, 0.3610360959655632, 0.0, 35.347859647975746, 0.0], [0.10406294789915892, 0.10107491252454966, 0.10455420081528054, 0.0, 0.0, 62.95106849237125]], 'compliance_tensor': [[5.1, -1.7, -0.6, 0.0, -0.0, 0.0], [-1.7, 8.4, -3.1, 0.0, -0.0, 0.0], [-0.6, -3.1, 6.8, 0.0, 0.0, 0.0], [0.0, 0.0, 0.0, 15.6, 0.0, 0.0], [-0.0, -0.0, 0.0, 0.0, 15.9, 0.0], [0.0, 0.0, 0.0, 0.0, 0.0, 28.3]], 'warnings': [], 'nsites': 14}",0.0
60,mp-570553,FeP4,"{'Fe': 1.0, 'P': 4.0}",0.07373298156910843,4.0883100579794185,"{'G_Reuss': 109.0, 'G_VRH': 114.0, 'G_Voigt': 119.0, 'G_Voigt_Reuss_Hill': 114.0, 'K_Reuss': 140.0, 'K_VRH': 141.0, 'K_Voigt': 141.0, 'K_Voigt_Reuss_Hill': 141.0, 'elastic_anisotropy': 0.44, 'elastic_tensor': [[314.0, 40.0, 42.0, 0.0, 14.0, 0.0], [40.0, 290.0, 92.0, 0.0, -19.0, 0.0], [42.0, 92.0, 316.0, 0.0, 5.0, 0.0], [0.0, 0.0, 0.0, 165.0, 0.0, -15.0], [14.0, -19.0, 5.0, 0.0, 98.0, 0.0], [0.0, 0.0, 0.0, -15.0, 0.0, 81.0]], 'homogeneous_poisson': 0.18, 'poisson_ratio': 0.18, 'universal_anisotropy': 0.44, 'elastic_tensor_original': [[290.3416835421423, 91.65317635868075, 41.38893465443675, -19.021181687604678, 0.0, 0.0], [91.42375728406668, 315.56782716407884, 42.381889448606195, 5.453939270373493, 0.0, 0.0], [39.56103858839684, 41.39293606251253, 314.13551617270394, 14.323109806732967, 0.0, 0.0], [-18.27063943765847, 5.4359023978884675, 13.954838490362011, 98.24237343225099, 0.0, 0.0], [0.06549767857498436, 0.06802683324268746, 0.06970394434020037, 0.0027381414120307766, 81.18134561965601, -14.715211938037097], [-0.2295134051495428, -0.2351686152522896, -0.22662587010817783, -0.010611759742387542, -14.633887154508914, 164.62285554405744]], 'compliance_tensor': [[3.3, -0.4, -0.3, 0.0, -0.5, 0.0], [-0.4, 3.9, -1.1, 0.0, 0.9, 0.0], [-0.3, -1.1, 3.5, 0.0, -0.4, 0.0], [0.0, 0.0, 0.0, 6.2, 0.0, 1.1], [-0.5, 0.9, -0.4, 0.0, 10.4, 0.0], [0.0, 0.0, 0.0, 1.1, 0.0, 12.5]], 'warnings': [], 'nsites': 20}",0.0
61,mp-571183,TmFe2,"{'Tm': 1.0, 'Fe': 2.0}",0.23056830172468645,10.050686707424342,,0.0
62,mp-582924,Zr6Fe23,"{'Zr': 6.0, 'Fe': 23.0}",0.18916788743496493,7.603506764359359,,0.0
63,mp-583463,FeCl3,"{'Fe': 1.0, 'Cl': 3.0}",0.08279992490895902,2.6057801189727603,,0.0
64,mp-601820,Fe3Co,"{'Fe': 3.0, 'Co': 1.0}",0.20954903839243388,8.136129054031493,"{'G_Reuss': 92.0, 'G_VRH': 96.0, 'G_Voigt': 101.0, 'G_Voigt_Reuss_Hill': 96.0, 'K_Reuss': 187.0, 'K_VRH': 187.0, 'K_Voigt': 187.0, 'K_Voigt_Reuss_Hill': 187.0, 'elastic_anisotropy': 0.49, 'elastic_tensor': [[282.0, 141.0, 141.0, 0.0, 0.0, 0.0], [141.0, 328.0, 90.0, 0.0, 0.0, 0.0], [141.0, 90.0, 328.0, 0.0, 0.0, 0.0], [0.0, 0.0, 0.0, 63.0, 0.0, 0.0], [0.0, 0.0, 0.0, 0.0, 126.0, 0.0], [0.0, 0.0, 0.0, 0.0, 0.0, 126.0]], 'homogeneous_poisson': 0.28, 'poisson_ratio': 0.28, 'universal_anisotropy': 0.49, 'elastic_tensor_original': [[328.03955336820206, 89.81574282227187, 141.58181260103217, 0.0, 0.0, 0.0], [89.81111489353007, 328.0389090046576, 141.57756420643946, 0.0, 0.0, 0.0], [141.07722296183576, 141.07722296183576, 281.91962044430005, 0.0, 0.0, 0.0], [-0.0003670734633882028, -0.00010384719750288611, 0.0003654267985731447, 125.72925016966629, 0.0, 0.0], [0.00030746632314270584, 0.0006986268007267033, 0.00022833678941148298, 0.0, 125.7297473427166, 0.0], [-0.0002908006086384225, -0.0003692074623664797, -0.000237573891343071, 0.0, 0.0, 63.31930577345508]], 'compliance_tensor': [[5.4, -1.8, -1.8, 0.0, 0.0, 0.0], [-1.8, 3.9, -0.3, -0.0, 0.0, -0.0], [-1.8, -0.3, 3.9, 0.0, -0.0, -0.0], [0.0, -0.0, 0.0, 15.8, -0.0, -0.0], [0.0, 0.0, -0.0, -0.0, 8.0, -0.0], [0.0, -0.0, -0.0, -0.0, -0.0, 8.0]], 'warnings': [], 'nsites': 4}",0.0
65,mp-601833,Fe13Ge3,"{'Fe': 13.0, 'Ge': 3.0}",0.20988246094557342,8.33365259824511,,0.0
66,mp-601842,Fe9Co7,"{'Fe': 9.0, 'Co': 7.0}",0.1979653804218472,8.206826865271259,"{'G_Reuss': 91.0, 'G_VRH': 97.0, 'G_Voigt': 103.0, 'G_Voigt_Reuss_Hill': 97.0, 'K_Reuss': 190.0, 'K_VRH': 190.0, 'K_Voigt': 190.0, 'K_Voigt_Reuss_Hill': 190.0, 'elastic_anisotropy': 0.65, 'elastic_tensor': [[274.0, 148.0, 148.0, 0.0, 0.0, 0.0], [148.0, 274.0, 148.0, 0.0, 0.0, 0.0], [148.0, 148.0, 274.0, 0.0, 0.0, 0.0], [0.0, 0.0, 0.0, 130.0, 0.0, 0.0], [0.0, 0.0, 0.0, 0.0, 130.0, 0.0], [0.0, 0.0, 0.0, 0.0, 0.0, 130.0]], 'homogeneous_poisson': 0.28, 'poisson_ratio': 0.28, 'universal_anisotropy': 0.65, 'elastic_tensor_original': [[275.40056723049236, 149.40619374388166, 149.40619374388166, 0.0, 0.0, 0.0], [148.0056070908167, 273.56177625703043, 148.0056070908167, 0.0, 0.0, 0.0], [147.9864174620044, 147.9864174620044, 273.54151493857216, 0.0, 0.0, 0.0], [-0.0003830765683550692, -0.00036189324302084874, -0.0004110730978527531, 129.5008102244343, 0.0, 0.0], [0.0012876627165108656, 0.0013622326437208942, 0.0012161828649510569, 0.0, 129.50081739777295, 0.0], [-0.0002065257925490331, -0.00022086577733032098, -0.00019285244895392672, 0.0, 0.0, 129.50083431439666]], 'compliance_tensor': [[5.9, -2.1, -2.1, 0.0, 0.0, -0.0], [-2.1, 5.9, -2.1, 0.0, 0.0, 0.0], [-2.1, -2.1, 5.9, -0.0, -0.0, 0.0], [0.0, 0.0, -0.0, 7.7, 0.0, -0.0], [0.0, 0.0, -0.0, 0.0, 7.7, 0.0], [-0.0, 0.0, 0.0, -0.0, 0.0, 7.7]], 'warnings': [], 'nsites': 16}",0.0
67,mp-601848,Fe11Co5,"{'Fe': 11.0, 'Co': 5.0}",0.20439360401920217,8.108531533908858,"{'G_Reuss': 92.0, 'G_VRH': 98.0, 'G_Voigt': 103.0, 'G_Voigt_Reuss_Hill': 98.0, 'K_Reuss': 191.0, 'K_VRH': 192.0, 'K_Voigt': 192.0, 'K_Voigt_Reuss_Hill': 192.0, 'elastic_anisotropy': 0.59, 'elastic_tensor': [[296.0, 154.0, 154.0, 0.0, 0.0, 0.0], [154.0, 270.0, 138.0, 0.0, 0.0, 0.0], [154.0, 138.0, 270.0, 0.0, 0.0, 0.0], [0.0, 0.0, 0.0, 128.0, 0.0, 0.0], [0.0, 0.0, 0.0, 0.0, 128.0, 0.0], [0.0, 0.0, 0.0, 0.0, 0.0, 128.0]], 'homogeneous_poisson': 0.28, 'poisson_ratio': 0.28, 'universal_anisotropy': 0.59, 'elastic_tensor_original': [[272.55023608976404, 140.87005236900248, 144.20850566199655, 0.0, 0.0, 0.0], [134.28994930048788, 267.7254879308681, 142.3268209661742, 0.0, 0.0, 0.0], [165.0405549188798, 165.0405549188798, 296.3803099683611, 0.0, 0.0, 0.0], [0.00016711994336332363, 0.0009279896855149746, 0.0001927466013471461, 128.32857589437688, 0.0, 0.0], [-0.0004076731951782697, -0.0008522830445073341, -0.0006434931152615754, 0.0, 128.32886417094582, 0.0], [-0.0003615065098532594, -4.9489978532468806e-05, -0.0015438859969737003, 0.0, 0.0, 127.89693114866272]], 'compliance_tensor': [[5.6, -2.1, -2.1, 0.0, -0.0, 0.0], [-2.1, 5.8, -1.8, -0.0, -0.0, -0.0], [-2.1, -1.8, 5.8, 0.0, 0.0, 0.0], [0.0, -0.0, 0.0, 7.8, 0.0, 0.0], [-0.0, -0.0, 0.0, 0.0, 7.8, 0.0], [0.0, -0.0, 0.0, 0.0, 0.0, 7.8]], 'warnings': [], 'nsites': 16}",0.0
68,mp-636368,Ga3Fe,"{'Ga': 3.0, 'Fe': 1.0}",0.12552372246884655,6.809894203032001,"{'G_Reuss': 64.0, 'G_VRH': 66.0, 'G_Voigt': 68.0, 'G_Voigt_Reuss_Hill': 66.0, 'K_Reuss': 102.0, 'K_VRH': 102.0, 'K_Voigt': 103.0, 'K_Voigt_Reuss_Hill': 102.0, 'elastic_anisotropy': 0.34, 'elastic_tensor': [[189.0, 63.0, 71.0, 0.0, 0.0, 0.0], [63.0, 189.0, 71.0, 0.0, 0.0, 0.0], [71.0, 71.0, 142.0, 0.0, 0.0, 0.0], [0.0, 0.0, 0.0, 78.0, 0.0, 0.0], [0.0, 0.0, 0.0, 0.0, 78.0, 0.0], [0.0, 0.0, 0.0, 0.0, 0.0, 79.0]], 'homogeneous_poisson': 0.23, 'poisson_ratio': 0.23, 'universal_anisotropy': 0.34, 'elastic_tensor_original': [[188.5117974231332, 62.64241466465628, 71.08145315600635, 0.0, 0.0, 0.0], [62.70126141802487, 188.63002905417034, 71.14781305141722, 0.0, 0.0, 0.0], [70.17355412157012, 70.17355412157012, 141.54560750385136, 0.0, 0.0, 0.0], [0.004717602926247002, 0.004637282997244278, 0.004929319417026607, 78.48056314762592, 0.0, 0.0], [0.00609555840349835, 0.006190674979992613, 0.006433918118666018, 0.0, 78.48055249424004, 0.0], [0.0018067853473851913, 0.0017931953484088062, 0.0017543586942561657, 0.0, 0.0, 78.5629042039095]], 'compliance_tensor': [[6.7, -1.2, -2.8, 0.0, 0.0, 0.0], [-1.2, 6.7, -2.8, -0.0, 0.0, 0.0], [-2.8, -2.8, 9.8, -0.0, 0.0, 0.0], [0.0, -0.0, -0.0, 12.7, 0.0, 0.0], [0.0, 0.0, 0.0, 0.0, 12.7, 0.0], [0.0, 0.0, 0.0, 0.0, 0.0, 12.7]], 'warnings': [], 'nsites': 16}",0.0
69,mp-639789,Fe2Re3,"{'Fe': 2.0, 'Re': 3.0}",0.1476792971076537,16.884043971045738,"{'G_Reuss': 100.0, 'G_VRH': 101.0, 'G_Voigt': 101.0, 'G_Voigt_Reuss_Hill': 101.0, 'K_Reuss': 251.0, 'K_VRH': 251.0, 'K_Voigt': 251.0, 'K_Voigt_Reuss_Hill': 251.0, 'elastic_anisotropy': 0.02, 'elastic_tensor': [[376.0, 188.0, 188.0, 0.0, 0.0, 0.0], [188.0, 376.0, 188.0, 0.0, 0.0, 0.0], [188.0, 188.0, 376.0, 0.0, 0.0, 0.0], [0.0, 0.0, 0.0, 105.0, 0.0, 0.0], [0.0, 0.0, 0.0, 0.0, 105.0, 0.0], [0.0, 0.0, 0.0, 0.0, 0.0, 105.0]], 'homogeneous_poisson': 0.32, 'poisson_ratio': 0.32, 'universal_anisotropy': 0.02, 'elastic_tensor_original': [[338.74141254152283, 154.03210421816198, 153.4891913228807, -0.013815303292520995, -0.004231057079790798, 0.000920081252510546], [206.93858584129734, 396.1673571485295, 206.93858584129734, 0.0, 0.0, 0.0], [203.68873126158516, 203.69733182682657, 392.96892455881937, -0.0031182614972878014, -0.011447550397129259, -0.012852489732055593], [-0.04863332167563948, -0.055408476336635884, -0.04639810677038132, 105.16087801374641, 0.0, 0.0], [0.25941539890705817, 0.2394811946157428, 0.2577884035225042, 0.0, 105.20511268555498, 0.0], [0.14039255270024614, 0.14333944704467905, 0.12510286808226112, 0.0, 0.0, 105.20630002128598]], 'compliance_tensor': [[4.0, -1.3, -1.3, -0.0, 0.0, -0.0], [-1.3, 4.0, -1.3, -0.0, -0.0, 0.0], [-1.3, -1.3, 4.0, 0.0, -0.0, -0.0], [-0.0, -0.0, 0.0, 9.5, 0.0, 0.0], [0.0, -0.0, -0.0, 0.0, 9.5, -0.0], [-0.0, 0.0, -0.0, 0.0, -0.0, 9.5]], 'warnings': [], 'nsites': 20}",0.0
70,mp-6988,FeN,"{'Fe': 1.0, 'N': 1.0}",0.19241480430505897,6.127073159507483,"{'G_Reuss': 47.0, 'G_VRH': 60.0, 'G_Voigt': 73.0, 'G_Voigt_Reuss_Hill': 60.0, 'K_Reuss': 267.0, 'K_VRH': 267.0, 'K_Voigt': 267.0, 'K_Voigt_Reuss_Hill': 267.0, 'elastic_anisotropy': 2.72, 'elastic_tensor': [[302.0, 250.0, 250.0, 0.0, 0.0, 0.0], [250.0, 302.0, 250.0, 0.0, 0.0, 0.0], [250.0, 250.0, 302.0, 0.0, 0.0, 0.0], [0.0, 0.0, 0.0, 105.0, 0.0, 0.0], [0.0, 0.0, 0.0, 0.0, 105.0, 0.0], [0.0, 0.0, 0.0, 0.0, 0.0, 105.0]], 'homogeneous_poisson': 0.39, 'poisson_ratio': 0.39, 'universal_anisotropy': 2.72, 'elastic_tensor_original': [[301.78763681045933, 249.60279740181227, 249.60279740181227, 0.0, 0.0, 0.0], [249.6022909572913, 301.7895398438456, 249.6022909572913, 0.0, 0.0, 0.0], [249.6009565951663, 249.6009565951663, 301.78364241934884, 0.0, 0.0, 0.0], [0.0002625928560950008, 0.0005416656822369077, -3.0049945384489242e-05, 104.74218263030104, 0.0, 0.0], [0.00044216919639631893, 0.0010935846791727231, 0.00033743938673530825, 0.0, 104.74145398495862, 0.0], [0.00020354296341182503, -7.832652431358987e-05, -0.00022915958352183086, 0.0, 0.0, 104.74183737759519]], 'compliance_tensor': [[13.2, -6.0, -6.0, 0.0, 0.0, -0.0], [-6.0, 13.2, -6.0, -0.0, -0.0, 0.0], [-6.0, -6.0, 13.2, 0.0, -0.0, 0.0], [0.0, -0.0, 0.0, 9.5, -0.0, -0.0], [0.0, 0.0, -0.0, -0.0, 9.5, -0.0], [-0.0, 0.0, 0.0, -0.0, -0.0, 9.5]], 'warnings': [], 'nsites': 2}",0.0