,mp_id,Formula,Composition,IPF,Density,Elastic_Tensor,E_above_Hull
681,mp-690544,Ga2FeO4,"{'Ga': 2.0, 'Fe': 1.0, 'O': 4.0}",0.5253411617198392,5.684689240639937,"{'G_Reuss': 71.0, 'G_VRH': 74.0, 'G_Voigt': 77.0, 'G_Voigt_Reuss_Hill': 74.0, 'K_Reuss': 173.0, 'K_VRH': 173.0, 'K_Voigt': 173.0, 'K_Voigt_Reuss_Hill': 173.0, 'elastic_anisotropy': 0.42, 'elastic_tensor': [[303.0, 139.0, 88.0, 0.0, 0.0, 0.0], [139.0, 256.0, 131.0, 0.0, 0.0, 0.0], [88.0, 131.0, 283.0, 0.0, 0.0, 0.0], [0.0, 0.0, 0.0, 82.0, 0.0, 0.0], [0.0, 0.0, 0.0, 0.0, 49.0, 0.0], [0.0, 0.0, 0.0, 0.0, 0.0, 95.0]], 'homogeneous_poisson': 0.31, 'poisson_ratio': 0.31, 'universal_anisotropy': 0.42, 'elastic_tensor_original': [[282.8093196744678, 88.84199666397657, 130.94371070357835, 0.0, 0.0, 0.0], [87.5244177520812, 303.1625053072197, 139.0276187011356, 0.0, 0.0, 0.0], [131.2942707654076, 139.12204150492863, 255.57589980882176, 0.0, 0.0, 0.0], [0.005693487120076949, -0.012500497540095365, -0.009446747395700077, 94.67615862232596, 0.0, 0.0], [-0.002462743557869288, -0.000998858739109156, -0.00035552621787623767, -0.000412569479200737, 82.17210786826364, -6.759658133740331e-05], [0.016191293793999164, -0.005035160590334106, 0.0050223006058537165, 0.0, 0.0, 49.010437408503876]], 'compliance_tensor': [[4.4, -2.2, -0.3, -0.0, 0.0, -0.0], [-2.2, 6.3, -2.2, 0.0, 0.0, -0.0], [-0.3, -2.2, 4.7, -0.0, -0.0, 0.0], [-0.0, 0.0, -0.0, 12.2, 0.0, 0.0], [0.0, 0.0, -0.0, 0.0, 20.4, -0.0], [-0.0, -0.0, 0.0, 0.0, -0.0, 10.6]], 'warnings': [], 'nsites': 28}",0.0
682,mp-755628,TaFeO4,"{'Ta': 1.0, 'Fe': 1.0, 'O': 4.0}",0.567551624627656,7.378115548244058,,0.0
683,mp-755653,LiFeF5,"{'Li': 1.0, 'Fe': 1.0, 'F': 5.0}",0.14771451959653895,2.9798075862189344,,0.417151250001524
684,mp-755712,Rb4FeO4,"{'Rb': 4.0, 'Fe': 1.0, 'O': 4.0}",0.5713535819670381,3.8850043163233705,,0.0
685,mp-861502,AcFeO3,"{'Ac': 1.0, 'Fe': 1.0, 'O': 3.0}",0.5582166494278478,8.492286267638073,,0.0
686,mp-862669,BeFe2Si,"{'Be': 1.0, 'Fe': 2.0, 'Si': 1.0}",0.1702747319563653,6.2693908280548545,"{'G_Reuss': 117.0, 'G_VRH': 122.0, 'G_Voigt': 127.0, 'G_Voigt_Reuss_Hill': 122.0, 'K_Reuss': 223.0, 'K_VRH': 223.0, 'K_Voigt': 223.0, 'K_Voigt_Reuss_Hill': 223.0, 'elastic_anisotropy': 0.43, 'elastic_tensor': [[337.0, 166.0, 166.0, 0.0, 0.0, 0.0], [166.0, 337.0, 166.0, 0.0, 0.0, 0.0], [166.0, 166.0, 337.0, 0.0, 0.0, 0.0], [0.0, 0.0, 0.0, 155.0, 0.0, 0.0], [0.0, 0.0, 0.0, 0.0, 155.0, 0.0], [0.0, 0.0, 0.0, 0.0, 0.0, 155.0]], 'homogeneous_poisson': 0.27, 'poisson_ratio': 0.27, 'universal_anisotropy': 0.43, 'elastic_tensor_original': [[338.4779635480659, 169.7376710428604, 169.73760808834652, 0.0, 0.0, 0.0], [164.22960786066344, 337.69795590291125, 164.22044547259722, -4.571348206650314e-06, -8.493083773408215e-05, -8.461004136870317e-05], [164.38654924112126, 164.40261924900474, 335.417474776608, 3.693176943988061e-05, 0.00019488425567624297, -2.1212710134307104e-05], [3.7340186269108006e-05, 6.509791594910784e-05, 7.85672854571998e-05, 154.66033806980877, 0.0, 0.0], [-0.022798177338842977, -0.019968524987476817, -0.021222520745000195, 0.0, 154.66124459312135, 0.0], [-0.0004606239113765053, -0.00039300960977965927, -0.00040048153994608486, 9.133332225782772e-07, 0.0, 154.6604285812399]], 'compliance_tensor': [[4.4, -1.5, -1.5, -0.0, -0.0, -0.0], [-1.5, 4.4, -1.5, 0.0, 0.0, -0.0], [-1.5, -1.5, 4.4, 0.0, -0.0, 0.0], [-0.0, 0.0, 0.0, 6.5, -0.0, -0.0], [-0.0, 0.0, -0.0, -0.0, 6.5, 0.0], [-0.0, -0.0, 0.0, -0.0, 0.0, 6.5]], 'warnings': [], 'nsites': 4}",0.0
687,mp-864890,Hf2FeIr,"{'Hf': 2.0, 'Fe': 1.0, 'Ir': 1.0}",0.14258118802711173,14.898057437222656,"{'G_Reuss': 65.0, 'G_VRH': 65.0, 'G_Voigt': 65.0, 'G_Voigt_Reuss_Hill': 65.0, 'K_Reuss': 188.0, 'K_VRH': 188.0, 'K_Voigt': 188.0, 'K_Voigt_Reuss_Hill': 188.0, 'elastic_anisotropy': 0.0, 'elastic_tensor': [[275.0, 144.0, 144.0, 0.0, 0.0, 0.0], [144.0, 275.0, 144.0, 0.0, 0.0, 0.0], [144.0, 144.0, 275.0, 0.0, 0.0, 0.0], [0.0, 0.0, 0.0, 65.0, 0.0, 0.0], [0.0, 0.0, 0.0, 0.0, 65.0, 0.0], [0.0, 0.0, 0.0, 0.0, 0.0, 65.0]], 'homogeneous_poisson': 0.34, 'poisson_ratio': 0.34, 'universal_anisotropy': 0.0, 'elastic_tensor_original': [[275.08420027445555, 144.19222846524508, 144.19222846524508, 0.0, 0.0, 0.0], [144.19555412324667, 275.08720188309337, 144.19555412324667, 0.0, 0.0, 0.0], [144.2049005887124, 144.2049005887124, 275.09671361505997, 0.0, 0.0, 0.0], [0.00013868344290418074, 0.00016567013089168852, 0.00014782345012459937, 65.43178234917482, 0.0, 0.0], [0.00034899694240068415, 0.000334366930841281, 0.00034446027214877296, 0.0, 65.43199267267431, 0.0], [-0.0009017307124308681, -0.0009108040529341052, -0.0008937507061256859, 0.0, 0.0, 65.43180726252784]], 'compliance_tensor': [[5.7, -2.0, -2.0, 0.0, -0.0, 0.0], [-2.0, 5.7, -2.0, -0.0, 0.0, -0.0], [-2.0, -2.0, 5.7, 0.0, 0.0, 0.0], [0.0, -0.0, 0.0, 15.3, -0.0, 0.0], [-0.0, 0.0, 0.0, -0.0, 15.3, -0.0], [0.0, -0.0, 0.0, 0.0, -0.0, 15.3]], 'warnings': [], 'nsites': 4}",0.0
688,mp-866656,GdFeB4,"{'Gd': 1.0, 'Fe': 1.0, 'B': 4.0}",0.1546101928069614,7.350196011433852,,0.0
689,mp-9549,ScFeGe,"{'Sc': 1.0, 'Fe': 1.0, 'Ge': 1.0}",0.1535804375798964,5.968421754413581,"{'G_Reuss': 50.0, 'G_VRH': 53.0, 'G_Voigt': 56.0, 'G_Voigt_Reuss_Hill': 53.0, 'K_Reuss': 101.0, 'K_VRH': 101.0, 'K_Voigt': 101.0, 'K_Voigt_Reuss_Hill': 101.0, 'elastic_anisotropy': 0.55, 'elastic_tensor': [[155.0, 74.0, 76.0, 0.0, 0.0, 3.0], [74.0, 154.0, 76.0, 0.0, 0.0, -3.0], [76.0, 76.0, 153.0, 0.0, 0.0, -0.0], [0.0, 0.0, 0.0, 78.0, 0.0, 0.0], [0.0, 0.0, 0.0, 0.0, 78.0, 0.0], [3.0, -3.0, -0.0, 0.0, 0.0, 44.0]], 'homogeneous_poisson': 0.28, 'poisson_ratio': 0.28, 'universal_anisotropy': 0.55, 'elastic_tensor_original': [[150.13372855771922, 80.91282530759203, 74.21722567283224, 0.0, 0.0, 0.0], [77.2794268707443, 148.651833504722, 74.73455756859961, 0.0, 0.0, 0.0], [77.4002714190399, 77.40023307805453, 152.6694963441815, 0.0, 0.0, 0.0], [-0.029243590085686774, 0.08071196715186622, 0.02547278742207351, 77.87567110807423, 0.0, 0.0], [-0.760061515138032, -0.944901422438119, -0.833889448071899, 0.0, 77.88588787287603, 0.0], [-0.09871773336105959, -0.06481601178337776, -0.10612730374227586, 0.0, 0.0, 48.88494722452351]], 'compliance_tensor': [[9.5, -3.0, -3.2, 0.0, 0.0, -0.9], [-3.0, 9.5, -3.3, 0.0, 0.0, 0.8], [-3.2, -3.3, 9.8, 0.0, 0.0, 0.0], [0.0, 0.0, 0.0, 12.8, -0.0, 0.0], [0.0, 0.0, 0.0, -0.0, 12.8, 0.0], [-0.9, 0.8, 0.0, 0.0, 0.0, 23.0]], 'warnings': [], 'nsites': 9}",0.0
690,mp-973089,ScTaFe2,"{'Sc': 1.0, 'Ta': 1.0, 'Fe': 2.0}",0.17864913111687475,9.626467032097093,,0.0
691,mp-976187,Pr(Al2Fe)4,"{'Pr': 1.0, 'Al': 8.0, 'Fe': 4.0}",0.13193203549977822,4.9500464814902285,,0.0
692,mp-1080643,LaFeSi2,"{'La': 1.0, 'Fe': 1.0, 'Si': 2.0}",0.14765478453883144,5.772616487642022,,0.0
693,mp-10884,AlFeCo2,"{'Al': 1.0, 'Fe': 1.0, 'Co': 2.0}",0.16561678757850282,7.183512710543788,"{'G_Reuss': 89.0, 'G_VRH': 98.0, 'G_Voigt': 107.0, 'G_Voigt_Reuss_Hill': 98.0, 'K_Reuss': 188.0, 'K_VRH': 188.0, 'K_Voigt': 188.0, 'K_Voigt_Reuss_Hill': 188.0, 'elastic_anisotropy': 1.01, 'elastic_tensor': [[265.0, 150.0, 150.0, 0.0, 0.0, 0.0], [150.0, 265.0, 150.0, 0.0, 0.0, 0.0], [150.0, 150.0, 265.0, 0.0, 0.0, 0.0], [0.0, 0.0, 0.0, 140.0, 0.0, 0.0], [0.0, 0.0, 0.0, 0.0, 140.0, 0.0], [0.0, 0.0, 0.0, 0.0, 0.0, 140.0]], 'homogeneous_poisson': 0.28, 'poisson_ratio': 0.28, 'universal_anisotropy': 1.01, 'elastic_tensor_original': [[267.8492236907778, 152.6749943913075, 152.6716677783048, 0.0013548298951794905, -0.001820652940030433, -0.0020244972339599787], [144.2349994338043, 259.40040892840665, 144.23508973931308, -0.000795479726980405, 0.0003947702040202962, 0.0003321350124713888], [151.66937457529517, 151.6636518355528, 266.84032012457953, -0.0005993278666706786, -0.0009906022982546425, -0.0019046480212313805], [-0.06356311368638762, -0.06301918923630481, -0.06324295648558877, 140.14879967770509, -8.312335759341413e-05, 0.00040705019104974975], [-0.03070650392952152, -0.029723293164722445, -0.030371575544823726, 0.0006341269580078098, 140.19228666016272, -7.769037578584361e-05], [0.008190466996269139, 0.008344366820702134, 0.007862191200417566, 0.0003726098637725899, -0.0002147065859478245, 140.19063073283414]], 'compliance_tensor': [[6.4, -2.3, -2.3, -0.0, -0.0, 0.0], [-2.3, 6.4, -2.3, 0.0, 0.0, 0.0], [-2.3, -2.3, 6.4, 0.0, -0.0, -0.0], [-0.0, 0.0, 0.0, 7.1, 0.0, -0.0], [-0.0, 0.0, -0.0, 0.0, 7.1, 0.0], [0.0, 0.0, -0.0, -0.0, 0.0, 7.1]], 'warnings': [], 'nsites': 4}",0.0
694,mp-1097025,GaFe2BO5,"{'Ga': 1.0, 'Fe': 2.0, 'B': 1.0, 'O': 5.0}",0.5360139434182957,4.923354627055817,,0.0
695,mp-1102092,NaFe(SO4)2,"{'Na': 1.0, 'Fe': 1.0, 'S': 2.0, 'O': 8.0}",0.5279441599222932,2.9012600146619896,,0.0
696,mp-11038,Zr6Al2Fe,"{'Zr': 6.0, 'Al': 2.0, 'Fe': 1.0}",0.11593527357972633,5.979508612096697,"{'G_Reuss': 48.0, 'G_VRH': 48.0, 'G_Voigt': 48.0, 'G_Voigt_Reuss_Hill': 48.0, 'K_Reuss': 105.0, 'K_VRH': 105.0, 'K_Voigt': 105.0, 'K_Voigt_Reuss_Hill': 105.0, 'elastic_anisotropy': 0.0, 'elastic_tensor': [[172.0, 74.0, 71.0, 0.0, 0.0, 0.0], [74.0, 172.0, 71.0, 0.0, 0.0, 0.0], [71.0, 71.0, 166.0, 0.0, 0.0, 0.0], [0.0, 0.0, 0.0, 46.0, 0.0, 0.0], [0.0, 0.0, 0.0, 0.0, 46.0, 0.0], [0.0, 0.0, 0.0, 0.0, 0.0, 49.0]], 'homogeneous_poisson': 0.3, 'poisson_ratio': 0.3, 'universal_anisotropy': 0.0, 'elastic_tensor_original': [[171.03712199109515, 75.05671466427135, 71.69824606128218, 0.0, 0.0, 0.0], [74.26859521357227, 170.80332416918208, 71.02806397490073, 0.0, 0.0, 0.0], [70.94315102328241, 70.94315018319047, 165.63640951094658, 0.0, 0.0, 0.0], [0.27614978654612893, 0.27552960313071906, 0.25618196390355313, 46.461642065478785, 0.0, 0.0], [-0.024959346885215748, 0.03085372851122365, 0.0056762448991662644, 0.0, 46.31065857512881, 0.0], [-5.3610015099184656e-05, -4.40766790803003e-05, -4.6836679857507906e-05, 0.0, 0.0, 49.79881746182541]], 'compliance_tensor': [[7.8, -2.4, -2.3, 0.0, 0.0, 0.0], [-2.4, 7.8, -2.3, 0.0, -0.0, 0.0], [-2.3, -2.3, 8.0, -0.0, 0.0, -0.0], [0.0, -0.0, -0.0, 21.6, 0.0, -0.0], [0.0, -0.0, -0.0, 0.0, 21.6, -0.0], [0.0, 0.0, -0.0, -0.0, -0.0, 20.4]], 'warnings': [], 'nsites': 9}",0.6823062777749911
697,mp-1183187,AlFe2Ge,"{'Al': 1.0, 'Fe': 2.0, 'Ge': 1.0}",0.1789852032128916,7.48473910647426,,0.0
698,mp-1190707,Tm2Fe12P7,"{'Tm': 2.0, 'Fe': 12.0, 'P': 7.0}",0.1868474987466157,8.082159142259245,,0.0
699,mp-1190821,Y2Fe17C3,"{'Y': 2.0, 'Fe': 17.0, 'C': 3.0}",0.20028971810105076,7.180031394499426,,0.0
700,mp-1190858,BaFe2(P2O7)2,"{'Ba': 1.0, 'Fe': 2.0, 'P': 4.0, 'O': 14.0}",0.47194673834627987,3.361912560050204,,0.0
701,mp-1191710,LuFeB4,"{'Lu': 1.0, 'Fe': 1.0, 'B': 4.0}",0.1456530123165936,8.336170952768919,,0.0
702,mp-1193282,Cs3FeS3,"{'Cs': 3.0, 'Fe': 1.0, 'S': 3.0}",0.347569943242114,3.7102312090414844,,0.0
703,mp-1201728,SmFeSb3,"{'Sm': 1.0, 'Fe': 1.0, 'Sb': 3.0}",0.1478622285094789,7.992427749209882,,0.0
704,mp-1205538,TmFe2SiC,"{'Tm': 1.0, 'Fe': 2.0, 'Si': 1.0, 'C': 1.0}",0.1771471608927322,8.230445035805973,,0.0
705,mp-1206739,ErFe2SiC,"{'Er': 1.0, 'Fe': 2.0, 'Si': 1.0, 'C': 1.0}",0.1620318239372751,8.144206997457792,,0.0
706,mp-1207018,TbFeSi2,"{'Tb': 1.0, 'Fe': 1.0, 'Si': 2.0}",0.12014033027314659,6.863803909173067,,0.0
707,mp-1207651,YMnFeO5,"{'Y': 1.0, 'Mn': 1.0, 'Fe': 1.0, 'O': 5.0}",0.5463177484869767,5.039813511052113,,0.0
708,mp-1208007,Tm(Al5Fe)2,"{'Tm': 1.0, 'Al': 10.0, 'Fe': 2.0}",0.11693048088955278,4.53399248816416,,0.0
709,mp-1211263,La(Al5Fe)2,"{'La': 1.0, 'Al': 10.0, 'Fe': 2.0}",0.11862384949767603,4.130782913854347,,0.0
710,mp-1224708,Fe2Pb(SeO3)4,"{'Fe': 2.0, 'Pb': 1.0, 'Se': 4.0, 'O': 12.0}",0.4522450816021465,4.809055232415082,,0.0
711,mp-1224896,FeSb6Pd,"{'Fe': 1.0, 'Sb': 6.0, 'Pd': 1.0}",0.09650624841779701,7.335672963861446,,0.0
712,mp-1225620,ErFeCo,"{'Er': 1.0, 'Fe': 1.0, 'Co': 1.0}",0.2033152429917809,10.495571784128003,,0.0
713,mp-1226186,Cr8Fe3CuS16,"{'Cr': 8.0, 'Fe': 3.0, 'Cu': 1.0, 'S': 16.0}",0.18084071182991698,4.167018030721841,,0.0
714,mp-1226473,CeYFe4,"{'Ce': 1.0, 'Y': 1.0, 'Fe': 4.0}",0.20947215132048647,7.725443408459014,,0.0
715,mp-1226639,CeDyFe4,"{'Ce': 1.0, 'Dy': 1.0, 'Fe': 4.0}",0.22443504711939807,9.026335723737418,,0.0
716,mp-1245798,LiFeN,"{'Li': 1.0, 'Fe': 1.0, 'N': 1.0}",0.22931786579913285,4.3669345231734,,0.0
717,mp-1246649,Sr3Fe3N5,"{'Sr': 3.0, 'Fe': 3.0, 'N': 5.0}",0.2723016639607101,5.397218680592403,,0.0
718,mp-12817,Tb(Zn10Fe)2,"{'Tb': 1.0, 'Zn': 20.0, 'Fe': 2.0}",0.19003825177070716,7.521135616753398,,0.0
719,mp-1539959,CaFeF5,"{'Ca': 1.0, 'Fe': 1.0, 'F': 5.0}",0.1532608547373338,3.010368323634848,,0.0
720,mp-16916,Ca6FeN5,"{'Ca': 6.0, 'Fe': 1.0, 'N': 5.0}",0.21739913112729314,2.9345131153194255,,0.0
721,mp-18215,SrFe3(P2O7)2,"{'O': 14.0, 'P': 4.0, 'Fe': 3.0, 'Sr': 1.0}",0.5075219436886277,3.695723914757039,,0.0
722,mp-18969,FeCO3,"{'Fe': 1.0, 'C': 1.0, 'O': 3.0}",0.5470532212255165,3.7794631044172364,"{'G_Reuss': -31.0, 'G_VRH': -4.0, 'G_Voigt': 23.0, 'G_Voigt_Reuss_Hill': -4.0, 'K_Reuss': 105.0, 'K_VRH': 111.0, 'K_Voigt': 117.0, 'K_Voigt_Reuss_Hill': 111.0, 'elastic_anisotropy': -8.63, 'elastic_tensor': [[157.0, 162.0, 72.0, 17.0, 0.0, 0.0], [162.0, 157.0, 72.0, -17.0, 0.0, 0.0], [72.0, 72.0, 126.0, 0.0, 0.0, 0.0], [17.0, -17.0, 0.0, 37.0, 0.0, 0.0], [0.0, 0.0, 0.0, 0.0, 37.0, 17.0], [0.0, 0.0, 0.0, 0.0, 17.0, -2.0]], 'homogeneous_poisson': 0.52, 'poisson_ratio': 0.52, 'universal_anisotropy': -8.63, 'elastic_tensor_original': [[123.37172388240039, 195.0360672245044, 73.77219708165127, -25.941814007647668, 0.0, 0.0], [221.80701173047694, 97.65439642715747, 74.30624371412665, 22.932153261325514, 0.0, 0.0], [69.87815144098099, 69.8781178642368, 126.27802483211504, 0.0, 0.0, 0.0], [-12.551173370172467, 9.967707173876228, 1.0931382981171671, 37.433466668331434, 0.0, 0.0], [-0.12800027935397534, 0.019096761892860015, 0.029475669588281895, 0.006007387262114722, 36.1615905643148, -18.018816826014135], [0.009842728895908582, 0.15184145772320912, 0.03928678556457659, -0.008311861882513547, -15.20875986456199, 44.60259697183679]], 'compliance_tensor': [[-22.3, 26.5, -2.4, 22.9, 0.0, 0.0], [26.5, -22.3, -2.4, -22.9, -0.0, 0.0], [-2.4, -2.4, 10.7, 0.0, -0.0, 0.0], [22.9, -22.9, -0.0, 5.8, -0.0, -0.0], [0.0, -0.0, 0.0, -0.0, 5.8, 45.7], [0.0, 0.0, 0.0, -0.0, 45.7, -97.6]], 'warnings': ['Elastic tensor has a negative eigenvalue', 'c11 and c12 are within 5% or c12 is greater than c11', 'One or more K, G below 2 GPa'], 'nsites': 10}",0.0
723,mp-19112,FeSO4,"{'Fe': 1.0, 'S': 1.0, 'O': 4.0}",0.5363093054539325,3.4717941773899157,"{'G_Reuss': 38.0, 'G_VRH': 39.0, 'G_Voigt': 40.0, 'G_Voigt_Reuss_Hill': 39.0, 'K_Reuss': 70.0, 'K_VRH': 73.0, 'K_Voigt': 77.0, 'K_Voigt_Reuss_Hill': 73.0, 'elastic_anisotropy': 0.32, 'elastic_tensor': [[94.0, 39.0, 61.0, 0.0, 0.0, 0.0], [39.0, 116.0, 60.0, 0.0, 0.0, 0.0], [61.0, 60.0, 163.0, 0.0, 0.0, 0.0], [0.0, 0.0, 0.0, 36.0, 0.0, 0.0], [0.0, 0.0, 0.0, 0.0, 46.0, 0.0], [0.0, 0.0, 0.0, 0.0, 0.0, 46.0]], 'homogeneous_poisson': 0.27, 'poisson_ratio': 0.27, 'universal_anisotropy': 0.32, 'elastic_tensor_original': [[94.47411750828662, 49.52371554233543, 63.12228285789128, 0.0, 0.0, 0.0], [28.41136471234715, 115.61036628833286, 46.96035955342392, 0.0, 0.0, 0.0], [58.24950343742299, 72.14439898647161, 162.5688073687903, 0.0, 0.0, 0.0], [0.0, 0.0, 0.0, 35.6380660866958, 0.0, 0.0], [0.0, 0.0, 0.0, 0.0, 46.08808523651569, 0.0], [0.0, 0.0, 0.0, 0.0, 0.0, 46.376714193122844]], 'compliance_tensor': [[14.52773200467424, -2.5923634561384192, -4.473471831027086, 2.6478230632114225e-16, 0.0, 0.0], [-2.592363456138419, 11.124128163615339, -3.107289866512232, -1.148733901789781e-15, 0.0, 0.0], [-4.473471831027087, -3.107289866512231, 8.959425622560031, -1.1306005566038648e-15, 0.0, 0.0], [2.6478230632114077e-16, -1.1487339017897804e-15, -1.1306005566038629e-15, 28.059883989420914, 0.0, 0.0], [0.0, 0.0, 0.0, 0.0, 21.69758181248324, -1.1129311532189062e-15], [0.0, 0.0, 0.0, 0.0, -1.1129311532189062e-15, 21.56254528589024]], 'warnings': [], 'nsites': 24}",0.6200458333314174
724,mp-19313,Zn(FeO2)2,"{'Zn': 1.0, 'Fe': 2.0, 'O': 4.0}",0.534225103865666,5.146031740407093,,0.0
725,mp-20690,NdFeSi,"{'Nd': 1.0, 'Fe': 1.0, 'Si': 1.0}",0.20752190866567607,6.57013858893239,"{'G_Reuss': 39.0, 'G_VRH': 45.0, 'G_Voigt': 50.0, 'G_Voigt_Reuss_Hill': 45.0, 'K_Reuss': 53.0, 'K_VRH': 59.0, 'K_Voigt': 65.0, 'K_Voigt_Reuss_Hill': 59.0, 'elastic_anisotropy': 1.58, 'elastic_tensor': [[164.0, 36.0, 30.0, 0.0, 0.0, 0.0], [36.0, 164.0, 30.0, 0.0, 0.0, 0.0], [30.0, 30.0, 64.0, 0.0, 0.0, 0.0], [0.0, 0.0, 0.0, 31.0, 0.0, 0.0], [0.0, 0.0, 0.0, 0.0, 31.0, 0.0], [0.0, 0.0, 0.0, 0.0, 0.0, 89.0]], 'homogeneous_poisson': 0.2, 'poisson_ratio': 0.2, 'universal_anisotropy': 1.58, 'elastic_tensor_original': [[163.95880867851653, 35.99402377632386, 36.689733143619485, 0.0, 0.0, 0.0], [35.99402377632386, 163.95880867851653, 36.689733143619485, 0.0, 0.0, 0.0], [23.96396499027601, 23.96396499027601, 63.90617984191136, 0.0, 0.0, 0.0], [0.0, 0.0, 0.0, 30.719116012676313, 0.0, 0.0], [0.0, 0.0, 0.0, 0.0, 30.719116012676313, 0.0], [0.8931087291895069, -0.8931087291895089, 0.0, 0.0, 0.0, 89.30601232613913]], 'compliance_tensor': [[6.8, -1.0, -2.8, 0.0, 0.0, 0.0], [-1.0, 6.8, -2.8, 0.0, 0.0, 0.0], [-2.8, -2.8, 18.3, 0.0, 0.0, 0.0], [0.0, 0.0, 0.0, 32.6, 0.0, 0.0], [0.0, 0.0, 0.0, 0.0, 32.6, 0.0], [0.0, 0.0, 0.0, 0.0, 0.0, 11.2]], 'warnings': ['Contains a rare earth element'], 'nsites': 6}",0.0
726,mp-21495,CrFeP,"{'Cr': 1.0, 'Fe': 1.0, 'P': 1.0}",0.20319535636095956,6.917186606244874,"{'G_Reuss': 142.0, 'G_VRH': 143.0, 'G_Voigt': 143.0, 'G_Voigt_Reuss_Hill': 143.0, 'K_Reuss': 238.0, 'K_VRH': 238.0, 'K_Voigt': 239.0, 'K_Voigt_Reuss_Hill': 238.0, 'elastic_anisotropy': 0.05, 'elastic_tensor': [[385.0, 133.0, 157.0, 0.0, 0.0, 0.0], [133.0, 467.0, 152.0, 0.0, 0.0, 0.0], [157.0, 152.0, 413.0, 0.0, 0.0, 0.0], [0.0, 0.0, 0.0, 147.0, 0.0, 0.0], [0.0, 0.0, 0.0, 0.0, 157.0, 0.0], [0.0, 0.0, 0.0, 0.0, 0.0, 139.0]], 'homogeneous_poisson': 0.25, 'poisson_ratio': 0.25, 'universal_anisotropy': 0.05, 'elastic_tensor_original': [[413.1301467471315, 155.4498442154086, 150.35793817804543, 0.0, 0.0, 0.0], [158.23086906873345, 384.8900029752672, 134.49915141171354, 0.0, 0.0, 0.0], [153.59327244775022, 131.14786082637036, 467.088200413438, 0.0, 0.0, 0.0], [0.008369663960007129, 0.00859771054334394, 0.009486236884889091, 139.37557270844712, 0.0, 0.0], [-0.002084199088687672, -0.002144288966313292, -0.0013050573421430815, 0.0, 146.7681785279271, 0.0], [0.0059049772030258536, 0.005880297256508236, 0.005843427336411795, 0.0, 0.0, 156.54598153789803]], 'compliance_tensor': [[3.2, -0.6, -1.0, 0.0, -0.0, 0.0], [-0.6, 2.5, -0.7, 0.0, 0.0, 0.0], [-1.0, -0.7, 3.1, 0.0, 0.0, 0.0], [0.0, 0.0, 0.0, 6.8, 0.0, 0.0], [-0.0, 0.0, 0.0, 0.0, 6.4, 0.0], [0.0, 0.0, 0.0, 0.0, 0.0, 7.2]], 'warnings': [], 'nsites': 12}",0.0
727,mp-21867,NaFe(SiO3)2,"{'Na': 1.0, 'Fe': 1.0, 'Si': 2.0, 'O': 6.0}",0.5435277154056026,3.433214447587636,,0.0
728,mp-30223,La2Fe2I,"{'La': 2.0, 'Fe': 2.0, 'I': 1.0}",0.2088862621689674,6.555263470863837,,0.0
729,mp-505545,Lu2FeB6,"{'Lu': 2.0, 'Fe': 1.0, 'B': 6.0}",0.14439990478830347,8.864965139369906,,0.0
730,mp-541648,Ba2FeCoF9,"{'Ba': 2.0, 'Fe': 1.0, 'Co': 1.0, 'F': 9.0}",0.2288701876890278,4.6894937066520965,,0.0
731,mp-556067,SrFe2(P2O7)2,"{'Sr': 1.0, 'Fe': 2.0, 'P': 4.0, 'O': 14.0}",0.504869048291238,3.400117572278107,,0.0
732,mp-556507,Sr2FeBrO3,"{'Sr': 2.0, 'Fe': 1.0, 'Br': 1.0, 'O': 3.0}",0.4047595397771519,4.83727326526571,,0.0