,mp_id,Formula,Composition,IPF,Density,Elastic_Tensor,E_above_Hull
733,mp-557403,LiFe2F6,"{'Li': 1.0, 'Fe': 2.0, 'F': 6.0}",0.16008144939291777,3.626600190170163,"{'G_Reuss': 31.0, 'G_VRH': 33.0, 'G_Voigt': 36.0, 'G_Voigt_Reuss_Hill': 33.0, 'K_Reuss': 72.0, 'K_VRH': 72.0, 'K_Voigt': 72.0, 'K_Voigt_Reuss_Hill': 72.0, 'elastic_anisotropy': 0.77, 'elastic_tensor': [[101.0, 62.0, 48.0, 0.0, 0.0, 0.0], [62.0, 101.0, 48.0, 0.0, 0.0, 0.0], [48.0, 48.0, 129.0, 0.0, 0.0, 0.0], [0.0, 0.0, 0.0, 29.0, 0.0, 0.0], [0.0, 0.0, 0.0, 0.0, 29.0, 0.0], [0.0, 0.0, 0.0, 0.0, 0.0, 62.0]], 'homogeneous_poisson': 0.3, 'poisson_ratio': 0.3, 'universal_anisotropy': 0.77, 'elastic_tensor_original': [[101.46534536632889, 62.01687702600012, 48.90077129118886, 0.0, 0.0, 0.0], [62.284870434290106, 101.26080138804586, 48.957210316662376, 0.0, 0.0, 0.0], [47.94379669164607, 47.94379669164607, 128.8380105524033, 0.0, 0.0, 0.0], [0.01814925579010224, 0.01730999249730296, -0.02406348217112545, 29.29619723839785, 0.0, 0.0], [0.024509978816227355, -0.036795241556211736, -0.0021919598941337105, 0.0, 29.275353392737884, 0.0], [-0.0006251665796970042, -0.00011711665037363297, -0.0005202299276279217, 0.0, 0.0, 61.967707216071226]], 'compliance_tensor': [[16.7, -8.8, -3.0, -0.0, -0.0, -0.0], [-8.8, 16.7, -3.0, 0.0, 0.0, 0.0], [-3.0, -3.0, 10.0, 0.0, -0.0, 0.0], [-0.0, 0.0, 0.0, 34.1, 0.0, 0.0], [-0.0, 0.0, -0.0, 0.0, 34.1, 0.0], [-0.0, 0.0, 0.0, 0.0, 0.0, 16.1]], 'warnings': [], 'nsites': 18}",0.0
734,mp-558486,Fe2Cu3(SeO3)6,"{'Fe': 2.0, 'Cu': 3.0, 'Se': 6.0, 'O': 18.0}",0.46393302344791454,4.3350739573074595,,0.0
735,mp-562456,Fe3(PO4)2,"{'Fe': 3.0, 'P': 2.0, 'O': 8.0}",0.4829764723185532,3.761809651265274,,0.0
736,mp-580234,Fe3RhN,"{'Fe': 3.0, 'Rh': 1.0, 'N': 1.0}",0.18485878347620224,8.26455198165304,"{'G_Reuss': 82.0, 'G_VRH': 83.0, 'G_Voigt': 84.0, 'G_Voigt_Reuss_Hill': 83.0, 'K_Reuss': 200.0, 'K_VRH': 200.0, 'K_Voigt': 200.0, 'K_Voigt_Reuss_Hill': 200.0, 'elastic_anisotropy': 0.16, 'elastic_tensor': [[338.0, 131.0, 131.0, 0.0, 0.0, 0.0], [131.0, 338.0, 131.0, 0.0, 0.0, 0.0], [131.0, 131.0, 338.0, 0.0, 0.0, 0.0], [0.0, 0.0, 0.0, 72.0, 0.0, 0.0], [0.0, 0.0, 0.0, 0.0, 72.0, 0.0], [0.0, 0.0, 0.0, 0.0, 0.0, 72.0]], 'homogeneous_poisson': 0.32, 'poisson_ratio': 0.32, 'universal_anisotropy': 0.16, 'elastic_tensor_original': [[337.69523847832676, 130.99953349422142, 130.99953349422142, 0.0, 0.0, 0.0], [131.05113920443404, 337.73408306669586, 131.05113920443404, 0.0, 0.0, 0.0], [131.02849677862244, 131.02849677862244, 337.71924251005163, 0.0, 0.0, 0.0], [-0.00043996425301922644, -0.00014288447011657503, 0.00013569598488019928, 71.88626621263255, 0.0, 0.0], [0.0005514727547209943, 0.0006305066487265694, 0.000539499273952623, 0.0, 71.88629293859015, 0.0], [-0.00015116669184673701, -0.0004270925449648049, -7.744309361154398e-05, 0.0, 0.0, 71.88575807311572]], 'compliance_tensor': [[3.8, -1.1, -1.1, 0.0, 0.0, -0.0], [-1.1, 3.8, -1.1, -0.0, 0.0, 0.0], [-1.1, -1.1, 3.8, 0.0, 0.0, -0.0], [0.0, -0.0, 0.0, 13.9, 0.0, -0.0], [0.0, 0.0, 0.0, 0.0, 13.9, 0.0], [-0.0, 0.0, -0.0, -0.0, 0.0, 13.9]], 'warnings': [], 'nsites': 5}",0.0
737,mp-582023,La21Fe8Sb7C12,"{'La': 21.0, 'Fe': 8.0, 'Sb': 7.0, 'C': 12.0}",0.1618967415056104,6.494332074663877,,0.0
738,mp-6247,Na3Li3Fe2F12,"{'Na': 3.0, 'Li': 3.0, 'Fe': 2.0, 'F': 12.0}",0.20715847873635124,2.864195656837456,,0.0
739,mp-6957,Ce(FeP)2,"{'Ce': 1.0, 'Fe': 2.0, 'P': 2.0}",0.16027200221524823,7.0400817817835675,"{'G_Reuss': 73.0, 'G_VRH': 86.0, 'G_Voigt': 99.0, 'G_Voigt_Reuss_Hill': 86.0, 'K_Reuss': 93.0, 'K_VRH': 113.0, 'K_Voigt': 132.0, 'K_Voigt_Reuss_Hill': 113.0, 'elastic_anisotropy': 2.15, 'elastic_tensor': [[293.0, 99.0, 78.0, 0.0, 0.0, 0.0], [99.0, 293.0, 78.0, 0.0, 0.0, 0.0], [78.0, 78.0, 95.0, 0.0, 0.0, 0.0], [0.0, 0.0, 0.0, 108.0, 0.0, 0.0], [0.0, 0.0, 0.0, 0.0, 108.0, 0.0], [0.0, 0.0, 0.0, 0.0, 0.0, 135.0]], 'homogeneous_poisson': 0.2, 'poisson_ratio': 0.2, 'universal_anisotropy': 2.15, 'elastic_tensor_original': [[292.62391690136906, 99.43056091742062, 85.62237921214235, 1.6800345182784146e-05, 8.400172591392073e-06, 0.0], [99.43056091741732, 292.62391690136906, 85.62237921214235, 8.400172589590976e-06, 0.0, 0.0], [70.86393973031618, 70.86393973031618, 94.64208731135699, 1.8400242967935955e-05, 1.8400242967935955e-05, 0.0], [0.0, 2.121898904371447e-05, 0.0, 108.1435141635394, -3.1562112720223973e-07, 1.0609491968125566e-05], [2.1218989041517087e-05, 0.0, 0.0, 3.1562112717188054e-07, 108.1435141635394, 1.0609496894958227e-05], [1.3542163655405868, -1.354216365547426, 0.0, 2.999971678193337e-07, -3.1844029062786606e-07, 135.41367772953606]], 'compliance_tensor': [[4.5, -0.7, -3.1, 0.0, -0.0, 0.0], [-0.7, 4.5, -3.1, -0.0, 0.0, 0.0], [-3.1, -3.1, 15.8, -0.0, -0.0, 0.0], [0.0, -0.0, -0.0, 9.2, 0.0, -0.0], [-0.0, 0.0, -0.0, 0.0, 9.2, -0.0], [0.0, 0.0, 0.0, -0.0, -0.0, 7.4]], 'warnings': ['Contains a rare earth element'], 'nsites': 5}",0.0
740,mp-752506,NaFeP2O7,"{'Na': 1.0, 'Fe': 1.0, 'P': 2.0, 'O': 7.0}",0.4986317330047947,3.0253750564538198,,0.0
741,mp-777049,LiFeBO3,"{'Li': 1.0, 'Fe': 1.0, 'B': 1.0, 'O': 3.0}",0.5088630052304193,3.306399498196677,,0.0
742,mp-861672,Ti2FeIr,"{'Ti': 2.0, 'Fe': 1.0, 'Ir': 1.0}",0.16811635255747065,9.950049065017923,"{'G_Reuss': 72.0, 'G_VRH': 72.0, 'G_Voigt': 73.0, 'G_Voigt_Reuss_Hill': 72.0, 'K_Reuss': 191.0, 'K_VRH': 191.0, 'K_Voigt': 191.0, 'K_Voigt_Reuss_Hill': 191.0, 'elastic_anisotropy': 0.04, 'elastic_tensor': [[278.0, 147.0, 147.0, 0.0, 0.0, 0.0], [147.0, 278.0, 147.0, 0.0, 0.0, 0.0], [147.0, 147.0, 278.0, 0.0, 0.0, 0.0], [0.0, 0.0, 0.0, 77.0, 0.0, 0.0], [0.0, 0.0, 0.0, 0.0, 77.0, 0.0], [0.0, 0.0, 0.0, 0.0, 0.0, 77.0]], 'homogeneous_poisson': 0.33, 'poisson_ratio': 0.33, 'universal_anisotropy': 0.04, 'elastic_tensor_original': [[275.77358538424863, 144.05180593004894, 144.05180593004894, 0.0, 0.0, 0.0], [148.49293531501107, 278.50493544688237, 148.49293531501107, 0.0, 0.0, 0.0], [148.4983398803492, 148.4983398803492, 278.5087320176952, 0.0, 0.0, 0.0], [-3.471976166986025e-05, -2.2789774308362374e-05, 2.986880368333834e-06, 77.43521473960895, 0.0, 0.0], [0.00046571505139425437, 0.0005098550578428293, 0.000490531685379052, 0.0, 77.43558185275049, 0.0], [9.135261272915069e-05, 9.498596952854017e-05, 0.00011196925915033665, 0.0, 0.0, 77.43546776588106]], 'compliance_tensor': [[5.7, -2.0, -2.0, 0.0, 0.0, -0.0], [-2.0, 5.7, -2.0, -0.0, 0.0, 0.0], [-2.0, -2.0, 5.7, 0.0, -0.0, 0.0], [0.0, -0.0, 0.0, 12.9, -0.0, -0.0], [0.0, 0.0, -0.0, -0.0, 12.9, -0.0], [-0.0, 0.0, 0.0, -0.0, -0.0, 12.9]], 'warnings': [], 'nsites': 4}",0.0
743,mp-865419,U2Fe12P7,"{'U': 2.0, 'Fe': 12.0, 'P': 7.0}",0.17427543538066556,8.928032161613572,,0.0
744,mp-867249,TaAlFe2,"{'Ta': 1.0, 'Al': 1.0, 'Fe': 2.0}",0.16952002333910032,10.2376920474426,"{'G_Reuss': 137.0, 'G_VRH': 137.0, 'G_Voigt': 137.0, 'G_Voigt_Reuss_Hill': 137.0, 'K_Reuss': 222.0, 'K_VRH': 222.0, 'K_Voigt': 222.0, 'K_Voigt_Reuss_Hill': 222.0, 'elastic_anisotropy': 0.0, 'elastic_tensor': [[406.0, 130.0, 130.0, 0.0, 0.0, 0.0], [130.0, 406.0, 130.0, 0.0, 0.0, 0.0], [130.0, 130.0, 406.0, 0.0, 0.0, 0.0], [0.0, 0.0, 0.0, 137.0, 0.0, 0.0], [0.0, 0.0, 0.0, 0.0, 137.0, 0.0], [0.0, 0.0, 0.0, 0.0, 0.0, 137.0]], 'homogeneous_poisson': 0.24, 'poisson_ratio': 0.24, 'universal_anisotropy': 0.0, 'elastic_tensor_original': [[405.453179757839, 129.7832856137379, 129.78249088170506, -9.980766081238638e-05, -0.00016533024729990724, 0.0001566286553367542], [129.99922409503472, 405.57002741777313, 129.99922409503472, 0.0, 0.0, 0.0], [130.00291454343665, 130.0096025789996, 405.66892466029327, -1.1668955121094593e-05, 0.0001160479591767964, 3.5808855405970686e-05], [0.002263015379715819, 0.0020969155001336623, 0.0021496021367707844, 136.66730004097965, 0.0, 0.0], [-0.0022181560794450753, -0.0023301126273477433, -0.002231286068559297, 0.0, 136.66713555788675, 0.0], [-0.0015247550317892464, -0.0015396350584454266, -0.0015061883940960738, 0.0, 0.0, 136.66704783852035]], 'compliance_tensor': [[2.9, -0.7, -0.7, -0.0, 0.0, 0.0], [-0.7, 2.9, -0.7, 0.0, -0.0, 0.0], [-0.7, -0.7, 2.9, 0.0, 0.0, -0.0], [-0.0, 0.0, 0.0, 7.3, -0.0, -0.0], [0.0, -0.0, 0.0, -0.0, 7.3, -0.0], [0.0, 0.0, -0.0, -0.0, -0.0, 7.3]], 'warnings': [], 'nsites': 4}",0.0
745,mp-867710,Li2FeCo3O8,"{'Li': 2.0, 'Fe': 1.0, 'Co': 3.0, 'O': 8.0}",0.5961903597588519,4.55299718801685,,0.8100503571437656
746,mp-867878,AlFe2Si,"{'Al': 1.0, 'Fe': 2.0, 'Si': 1.0}",0.16212246129176208,6.2890500357648484,"{'G_Reuss': 122.0, 'G_VRH': 124.0, 'G_Voigt': 125.0, 'G_Voigt_Reuss_Hill': 124.0, 'K_Reuss': 216.0, 'K_VRH': 216.0, 'K_Voigt': 216.0, 'K_Voigt_Reuss_Hill': 216.0, 'elastic_anisotropy': 0.1, 'elastic_tensor': [[355.0, 146.0, 146.0, 0.0, 0.0, 0.0], [146.0, 355.0, 146.0, 0.0, 0.0, 0.0], [146.0, 146.0, 355.0, 0.0, 0.0, 0.0], [0.0, 0.0, 0.0, 138.0, 0.0, 0.0], [0.0, 0.0, 0.0, 0.0, 138.0, 0.0], [0.0, 0.0, 0.0, 0.0, 0.0, 138.0]], 'homogeneous_poisson': 0.26, 'poisson_ratio': 0.26, 'universal_anisotropy': 0.1, 'elastic_tensor_original': [[355.1270734054773, 146.73607588113148, 146.3665248084017, -0.2630813747828174, -0.3300466884451327, 0.3704927024209206], [146.38226679970063, 355.1129449463264, 146.94536475577956, -0.37261840445116823, -0.2798215805602282, 0.3547054961286965], [146.01346941345884, 146.0135215298728, 354.5306516471635, 0.0, 0.0, 0.0], [0.0212581730704152, 0.013525471428633518, 0.005897219974877741, 138.403544542745, -0.0014206850163284049, 0.027164120341009172], [-2.9195336558943152, -0.0072701351550882925, 2.9156632491161454, 0.009533322868717416, 138.40919571463675, 0.017119002285527003], [0.06664314731335537, 0.053741164082337325, 0.05557134240443467, 0.02154740488693367, -0.0027723587993098648, 138.4234412968736]], 'compliance_tensor': [[3.7, -1.1, -1.1, 0.0, -0.0, 0.0], [-1.1, 3.7, -1.1, -0.0, 0.0, 0.0], [-1.1, -1.1, 3.7, -0.0, -0.0, -0.0], [0.0, -0.0, -0.0, 7.2, 0.0, -0.0], [-0.0, 0.0, -0.0, 0.0, 7.2, -0.0], [0.0, 0.0, -0.0, -0.0, -0.0, 7.2]], 'warnings': [], 'nsites': 4}",0.0
747,mp-8793,Nd5(FeB3)2,"{'Nd': 5.0, 'Fe': 2.0, 'B': 6.0}",0.2380495995220395,7.029257741177368,,0.0
748,mp-977395,YbFeB4,"{'Yb': 1.0, 'Fe': 1.0, 'B': 4.0}",0.1626416597907308,8.08922043362536,,0.0
749,mp-9977,Er2FeC4,"{'Er': 2.0, 'Fe': 1.0, 'C': 4.0}",0.13791187210882003,8.228030609098647,,0.0
750,mp-1025194,Pr2Fe2Si2C,"{'Pr': 2.0, 'Fe': 2.0, 'Si': 2.0, 'C': 1.0}",0.1384934405966683,6.3959426017876035,,0.0
751,mp-1025289,Ce2Fe2Si2C,"{'Ce': 2.0, 'Fe': 2.0, 'Si': 2.0, 'C': 1.0}",0.15228014417510313,6.773695947599167,,0.0
752,mp-1025382,Th2Fe2Si2C,"{'Th': 2.0, 'Fe': 2.0, 'Si': 2.0, 'C': 1.0}",0.14589377195890557,9.082682300851431,,0.0
753,mp-1078132,La2Fe(SeO)2,"{'La': 2.0, 'Fe': 1.0, 'Se': 2.0, 'O': 2.0}",0.29107753243464496,6.089611685855344,,0.0
754,mp-1095170,Sr2FeOsO6,"{'Sr': 2.0, 'Fe': 1.0, 'Os': 1.0, 'O': 6.0}",0.5819296345357912,6.809041799025976,,0.0
755,mp-1105138,SrFe4(CuO4)3,"{'Sr': 1.0, 'Fe': 4.0, 'Cu': 3.0, 'O': 12.0}",0.6109530359029958,5.5194698030836795,,0.0
756,mp-11705,Dy2Fe2Si2C,"{'Dy': 2.0, 'Fe': 2.0, 'Si': 2.0, 'C': 1.0}",0.1744796793969142,7.804425157940714,"{'G_Reuss': 79.0, 'G_VRH': 83.0, 'G_Voigt': 87.0, 'G_Voigt_Reuss_Hill': 83.0, 'K_Reuss': 125.0, 'K_VRH': 127.0, 'K_Voigt': 128.0, 'K_Voigt_Reuss_Hill': 127.0, 'elastic_anisotropy': 0.53, 'elastic_tensor': [[216.0, 83.0, 72.0, 0.0, -46.0, 0.0], [83.0, 257.0, 76.0, 0.0, 10.0, 0.0], [72.0, 76.0, 217.0, 0.0, 8.0, 0.0], [0.0, 0.0, 0.0, 93.0, 0.0, 16.0], [-46.0, 10.0, 8.0, 0.0, 93.0, 0.0], [0.0, 0.0, 0.0, 16.0, 0.0, 93.0]], 'homogeneous_poisson': 0.23, 'poisson_ratio': 0.23, 'universal_anisotropy': 0.53, 'elastic_tensor_original': [[215.77274602179764, 84.92475521171937, 76.90481885453046, 5.399963477366175e-06, -43.96213406226221, -2.6399821444901303e-05], [80.21745669856293, 256.7692050672161, 80.94663251959524, 1.4000319127088519e-06, 11.78245137240667, 9.800223388961962e-06], [66.41348526900863, 71.74961022110911, 217.24217242414235, -1.0000157330313766e-06, 8.949984608173322, -8.20012901085729e-06], [0.0, -3.7666687140925357e-08, 0.0, 93.4851083367981, 0.0, 15.375563624618604], [-48.62097232441008, 7.699249405302588, 7.555981869561827, -1.1400130159686805e-05, 93.24969976781925, 6.1000696468499565e-06], [0.0, -2.2859991629444761e-07, 0.0, 15.718361054638535, 0.0, 93.25580443977987]], 'compliance_tensor': [[6.7, -1.8, -1.7, -0.0, 3.6, 0.0], [-1.8, 4.8, -1.1, 0.0, -1.3, 0.0], [-1.7, -1.1, 5.6, 0.0, -1.2, -0.0], [-0.0, 0.0, 0.0, 11.0, 0.0, -1.8], [3.6, -1.3, -1.2, 0.0, 12.8, -0.0], [0.0, 0.0, -0.0, -1.8, -0.0, 11.0]], 'warnings': ['Contains a rare earth element'], 'nsites': 7}",0.0
757,mp-1190820,Ba2FeGe2O7,"{'Ba': 2.0, 'Fe': 1.0, 'Ge': 2.0, 'O': 7.0}",0.4488518519997069,4.721479139682873,,0.0
758,mp-1192819,MgFeSiO4,"{'Mg': 1.0, 'Fe': 1.0, 'Si': 1.0, 'O': 4.0}",0.5065931889768696,3.6739676265333623,,0.0
759,mp-1194355,Fe3Sb2(BrO)4,"{'Fe': 3.0, 'Sb': 2.0, 'Br': 4.0, 'O': 4.0}",0.18431103230159665,4.221844344547373,,0.0
760,mp-1206116,YFe2SiC,"{'Y': 1.0, 'Fe': 2.0, 'Si': 1.0, 'C': 1.0}",0.16190541248897256,6.061888156820662,,0.0
761,mp-1209643,Sm3Sc2(FeO4)3,"{'Sm': 3.0, 'Sc': 2.0, 'Fe': 3.0, 'O': 12.0}",0.5247216380728416,5.707737225604946,,0.0
762,mp-1210261,NaCr2FeO8,"{'Na': 1.0, 'Cr': 2.0, 'Fe': 1.0, 'O': 8.0}",0.49771097469317405,3.090342697182502,,0.0
763,mp-1218464,Sr4TlFe2O9,"{'Sr': 4.0, 'Tl': 1.0, 'Fe': 2.0, 'O': 9.0}",0.5688263906176015,5.932682554895518,,0.0
764,mp-1218824,Sr2FeSbO6,"{'Sr': 2.0, 'Fe': 1.0, 'Sb': 1.0, 'O': 6.0}",0.5775844659948366,5.775725794310813,,0.0
765,mp-1219597,RbFeCuF6,"{'Rb': 1.0, 'Fe': 1.0, 'Cu': 1.0, 'F': 6.0}",0.23008559985828694,3.7059216722067845,,0.9805591666651736
766,mp-1219783,Rb4FeSbCl12,"{'Rb': 4.0, 'Fe': 1.0, 'Sb': 1.0, 'Cl': 12.0}",0.20082669676381182,2.987192767227172,,0.0
767,mp-1220545,Nd2MnFeO6,"{'Nd': 2.0, 'Mn': 1.0, 'Fe': 1.0, 'O': 6.0}",0.5783856571573643,6.658550990868787,,0.0
768,mp-1221858,MnNb4FeO12,"{'Mn': 1.0, 'Nb': 4.0, 'Fe': 1.0, 'O': 12.0}",0.5166250902472426,5.096265997087283,,0.3471936111179019
769,mp-1222215,Mg3Fe3(PO4)4,"{'Mg': 3.0, 'Fe': 3.0, 'P': 4.0, 'O': 16.0}",0.4516189924538144,3.047897925464733,,0.0
770,mp-1225099,FeAg2Sn3S8,"{'Fe': 1.0, 'Ag': 2.0, 'Sn': 3.0, 'S': 8.0}",0.14449429133054706,4.892244465404113,,0.0
771,mp-1225114,GaFe4Co8Si3,"{'Ga': 1.0, 'Fe': 4.0, 'Co': 8.0, 'Si': 3.0}",0.16255072780840224,7.793660330118831,,0.0
772,mp-1225690,Er2Fe6Co6P7,"{'Er': 2.0, 'Fe': 6.0, 'Co': 6.0, 'P': 7.0}",0.16267702780147167,8.169139665694459,,0.0
773,mp-1228062,CaCe(FeSb3)8,"{'Ca': 1.0, 'Ce': 1.0, 'Fe': 8.0, 'Sb': 24.0}",0.1157935831371601,7.605760453595041,,0.0
774,mp-1228886,CsVFeF6,"{'Cs': 1.0, 'V': 1.0, 'Fe': 1.0, 'F': 6.0}",0.251492039987231,3.865639927088723,,0.0
775,mp-1228982,CsMnFeF6,"{'Cs': 1.0, 'Mn': 1.0, 'Fe': 1.0, 'F': 6.0}",0.2385637450971525,3.790419685453336,,0.0
776,mp-1229097,AlCrFeO4,"{'Al': 1.0, 'Cr': 1.0, 'Fe': 1.0, 'O': 4.0}",0.5527920825193182,4.46445972018396,,0.0
777,mp-1299167,Ba2FeMoO6,"{'Ba': 2.0, 'Fe': 1.0, 'Mo': 1.0, 'O': 6.0}",0.6006186251019368,6.313281440106794,,0.12801549999963413
778,mp-1568793,MgFeP2O7,"{'Mg': 1.0, 'Fe': 1.0, 'P': 2.0, 'O': 7.0}",0.5199227222678172,3.3590666890056147,,0.0
779,mp-1643291,Fe2PClO4,"{'Fe': 2.0, 'P': 1.0, 'Cl': 1.0, 'O': 4.0}",0.36528003213470756,3.5479858193571134,,0.7263999999995718
780,mp-19017,LiFePO4,"{'Li': 1.0, 'Fe': 1.0, 'P': 1.0, 'O': 4.0}",0.5281605073077549,3.4708958823634912,"{'G_Reuss': 47.0, 'G_VRH': 48.0, 'G_Voigt': 49.0, 'G_Voigt_Reuss_Hill': 48.0, 'K_Reuss': 91.0, 'K_VRH': 91.0, 'K_Voigt': 92.0, 'K_Voigt_Reuss_Hill': 91.0, 'elastic_anisotropy': 0.17, 'elastic_tensor': [[185.0, 64.0, 45.0, 0.0, 0.0, 0.0], [64.0, 140.0, 53.0, 0.0, 0.0, 0.0], [45.0, 53.0, 173.0, 0.0, 0.0, 0.0], [0.0, 0.0, 0.0, 48.0, 0.0, 0.0], [0.0, 0.0, 0.0, 0.0, 40.0, 0.0], [0.0, 0.0, 0.0, 0.0, 0.0, 45.0]], 'homogeneous_poisson': 0.28, 'poisson_ratio': 0.28, 'universal_anisotropy': 0.17, 'elastic_tensor_original': [[173.3972982452535, 44.87969267740867, 53.655756796415176, 0.0, 0.0, 0.0], [45.500741912796116, 185.292618236363, 65.31250838065236, 0.0, 0.0, 0.0], [53.21441176268542, 63.07109853855534, 139.59337604738997, 0.0, 0.0, 0.0], [-0.06739301790471036, -0.11083347780965859, -0.09868062732591029, 44.727300450460625, 0.0, 0.0], [0.1461520735978009, 0.07657522547201479, 0.019708191646714644, 0.0, 47.50668806934699, 0.0], [0.10016003270870993, 0.005463681015940671, 0.1458026719644383, 0.0, 0.0, 40.177969410672205]], 'compliance_tensor': [[6.5, -2.7, -0.9, 0.0, 0.0, -0.0], [-2.7, 9.2, -2.1, 0.0, 0.0, 0.0], [-0.9, -2.1, 6.7, 0.0, 0.0, -0.0], [0.0, 0.0, 0.0, 21.0, 0.0, 0.0], [0.0, 0.0, 0.0, 0.0, 24.9, 0.0], [-0.0, 0.0, -0.0, 0.0, 0.0, 22.4]], 'warnings': [], 'nsites': 28}",0.0
781,mp-19362,KFe(MoO4)2,"{'K': 1.0, 'Fe': 1.0, 'Mo': 2.0, 'O': 8.0}",0.4141796284513081,3.2332461355535784,,0.0
782,mp-26077,Li3Fe3(PO4)4,"{'Li': 3.0, 'Fe': 3.0, 'P': 4.0, 'O': 16.0}",0.48739710752265347,2.9902559852689166,,0.0
783,mp-504603,Cs2TlFeF6,"{'Cs': 2.0, 'Tl': 1.0, 'Fe': 1.0, 'F': 6.0}",0.34350249226825347,5.14265894799949,,0.0
784,mp-505040,Cs2K4Fe2O5,"{'Cs': 2.0, 'K': 4.0, 'Fe': 2.0, 'O': 5.0}",0.5369102799263843,3.5173975275674376,,0.0
785,mp-558674,K2NaFeF6,"{'K': 2.0, 'Na': 1.0, 'Fe': 1.0, 'F': 6.0}",0.3131620163600146,2.9758159256131105,"{'G_Reuss': 30.0, 'G_VRH': 30.0, 'G_Voigt': 30.0, 'G_Voigt_Reuss_Hill': 30.0, 'K_Reuss': 99.0, 'K_VRH': 99.0, 'K_Voigt': 99.0, 'K_Voigt_Reuss_Hill': 99.0, 'elastic_anisotropy': 0.0, 'elastic_tensor': [[138.0, 80.0, 80.0, 0.0, 0.0, 0.0], [80.0, 138.0, 80.0, 0.0, 0.0, 0.0], [80.0, 80.0, 138.0, 0.0, 0.0, 0.0], [0.0, 0.0, 0.0, 31.0, 0.0, 0.0], [0.0, 0.0, 0.0, 0.0, 31.0, 0.0], [0.0, 0.0, 0.0, 0.0, 0.0, 31.0]], 'homogeneous_poisson': 0.36, 'poisson_ratio': 0.36, 'universal_anisotropy': 0.0, 'elastic_tensor_original': [[137.9687092595266, 80.01649568478142, 80.01649568478142, 0.0, 0.0, 0.0], [80.01649568478142, 137.9687092595266, 80.01649568478142, 0.0, 0.0, 0.0], [80.01649568478142, 80.01649568478142, 137.9687092595266, 0.0, 0.0, 0.0], [0.0, 0.0, 0.0, 30.585555516999204, 0.0, 0.0], [0.0, 0.0, 0.0, 0.0, 30.585555516999204, 0.0], [0.0, 0.0, 0.0, 0.0, 0.0, 30.585555516999204]], 'compliance_tensor': [[12.622292691324414, -4.633303571797204, -4.633303571797206, -2.136447995112179e-16, 5.610880700364459e-16, 2.093448678986829e-17], [-4.633303571797205, 12.622292691324416, -4.633303571797207, 5.610880700364459e-16, -2.136447995112179e-16, -2.0934486789868265e-17], [-4.633303571797205, -4.633303571797207, 12.622292691324418, 5.610880700364458e-16, 5.610880700364458e-16, 1.9589712665705298e-32], [-2.136447995112179e-16, 5.610880700364458e-16, 5.610880700364459e-16, 32.695172054148514, 1.6375817351841238e-32, 7.537983827577937e-16], [5.610880700364458e-16, -2.1364479951121797e-16, 5.610880700364459e-16, 1.6375817351841213e-32, 32.695172054148514, 7.537983827577937e-16], [2.0934486789868296e-17, -2.0934486789868283e-17, 2.2944394981932507e-32, 7.537983827577937e-16, 7.537983827577943e-16, 32.695172054148514]], 'warnings': [], 'nsites': 10}",0.0
786,mp-559874,FeTe2ClO5,"{'Fe': 1.0, 'Te': 2.0, 'Cl': 1.0, 'O': 5.0}",0.4219943317172153,4.626148485191427,,0.0
787,mp-561519,NaFe(SeO4)2,"{'Na': 1.0, 'Fe': 1.0, 'Se': 2.0, 'O': 8.0}",0.500470162687917,3.571061180673311,,0.0
788,mp-568668,DyFe2SiC,"{'Dy': 1.0, 'Fe': 2.0, 'Si': 1.0, 'C': 1.0}",0.18281699879769275,7.9354741960540265,,0.0
789,mp-581085,Na7Sr2Fe7F32,"{'Na': 7.0, 'Sr': 2.0, 'Fe': 7.0, 'F': 32.0}",0.1965298738830616,3.346998936303627,,0.0
790,mp-630641,Sr2FeClO3,"{'Sr': 2.0, 'Fe': 1.0, 'Cl': 1.0, 'O': 3.0}",0.42890329438913294,4.572816225124258,,0.0