,mp_id,Formula,Composition,IPF,Density,Elastic_Tensor,E_above_Hull
136,mp-1152,TiRh3,"{'Ti': 1.0, 'Rh': 3.0}",0.135165207417897,10.282251751785296,"{'G_Reuss': 123.0, 'G_VRH': 129.0, 'G_Voigt': 135.0, 'G_Voigt_Reuss_Hill': 129.0, 'K_Reuss': 230.0, 'K_VRH': 230.0, 'K_Voigt': 230.0, 'K_Voigt_Reuss_Hill': 230.0, 'elastic_anisotropy': 0.48, 'elastic_tensor': [[349.0, 171.0, 171.0, 0.0, 0.0, 0.0], [171.0, 349.0, 171.0, 0.0, 0.0, 0.0], [171.0, 171.0, 349.0, 0.0, 0.0, 0.0], [0.0, 0.0, 0.0, 166.0, 0.0, 0.0], [0.0, 0.0, 0.0, 0.0, 166.0, 0.0], [0.0, 0.0, 0.0, 0.0, 0.0, 166.0]], 'homogeneous_poisson': 0.26, 'poisson_ratio': 0.26, 'universal_anisotropy': 0.48, 'elastic_tensor_original': [[349.06829483632123, 171.18622205429813, 171.18622205429813, 0.0, 0.0, 0.0], [171.18406464855855, 349.06641385084254, 171.18406464855855, 0.0, 0.0, 0.0], [171.18354718823363, 171.18354718823363, 349.0665763799984, 0.0, 0.0, 0.0], [-0.0002671028722141369, -0.00037705268239441247, -3.5919937986780416e-05, 165.76529265722692, 0.0, 0.0], [0.00043456591644860227, 0.0003653360359602626, 0.00084566854006115, 0.0, 165.76506833094754, 0.0], [6.154322708924058e-05, -0.00031635945384467256, -6.484655471737958e-05, 0.0, 0.0, 165.7650445609885]], 'compliance_tensor': [[4.2, -1.4, -1.4, 0.0, -0.0, -0.0], [-1.4, 4.2, -1.4, -0.0, 0.0, 0.0], [-1.4, -1.4, 4.2, -0.0, -0.0, 0.0], [0.0, -0.0, -0.0, 6.0, -0.0, -0.0], [-0.0, 0.0, -0.0, -0.0, 6.0, 0.0], [-0.0, 0.0, 0.0, -0.0, 0.0, 6.0]], 'warnings': [], 'nsites': 4}",0.0
137,mp-11573,TiTc,"{'Ti': 1.0, 'Tc': 1.0}",0.14326790054127483,8.076824961632303,"{'G_Reuss': 69.0, 'G_VRH': 72.0, 'G_Voigt': 75.0, 'G_Voigt_Reuss_Hill': 72.0, 'K_Reuss': 207.0, 'K_VRH': 207.0, 'K_Voigt': 207.0, 'K_Voigt_Reuss_Hill': 207.0, 'elastic_anisotropy': 0.46, 'elastic_tensor': [[344.0, 138.0, 138.0, 0.0, 0.0, 0.0], [138.0, 344.0, 138.0, 0.0, 0.0, 0.0], [138.0, 138.0, 344.0, 0.0, 0.0, 0.0], [0.0, 0.0, 0.0, 56.0, 0.0, 0.0], [0.0, 0.0, 0.0, 0.0, 56.0, 0.0], [0.0, 0.0, 0.0, 0.0, 0.0, 56.0]], 'homogeneous_poisson': 0.34, 'poisson_ratio': 0.34, 'universal_anisotropy': 0.46, 'elastic_tensor_original': [[343.9246119221148, 137.8224293567028, 137.8224293567028, 0.0, 0.0, 0.0], [137.82203195487585, 343.9237007466467, 137.82203195487585, 0.0, 0.0, 0.0], [137.82333571596263, 137.82333571596263, 343.92525841562497, 0.0, 0.0, 0.0], [1.6126641109987687e-05, -2.6179958509200756e-05, -7.716654437458782e-05, 56.11434183177707, 0.0, 0.0], [-5.718657603748163e-05, -0.00028986620729539727, -0.00011804314626152606, 0.0, 56.11400842563877, 0.0], [9.381318466137547e-05, 8.499653196852865e-05, 0.00013501978602552695, 0.0, 0.0, 56.11443247163342]], 'compliance_tensor': [[3.8, -1.1, -1.1, -0.0, 0.0, -0.0], [-1.1, 3.8, -1.1, -0.0, -0.0, 0.0], [-1.1, -1.1, 3.8, 0.0, -0.0, -0.0], [-0.0, -0.0, 0.0, 17.8, -0.0, -0.0], [0.0, -0.0, -0.0, -0.0, 17.8, -0.0], [-0.0, 0.0, -0.0, -0.0, -0.0, 17.8]], 'warnings': [], 'nsites': 2}",0.0
138,mp-1185639,Mg149Ti,"{'Mg': 149.0, 'Ti': 1.0}",0.11704407275781241,1.7848071444269034,,0.0
139,mp-1187436,Ti2CuRe,"{'Ti': 2.0, 'Cu': 1.0, 'Re': 1.0}",0.1509790927084071,9.624120699264697,,0.0
140,mp-1187461,Ti2VOs,"{'Ti': 2.0, 'V': 1.0, 'Os': 1.0}",0.13892437244312128,9.229605281489185,,0.0
141,mp-1190997,Na3TiF8,"{'Na': 3.0, 'Ti': 1.0, 'F': 8.0}",0.19975776320319136,2.626942489408162,,0.0
142,mp-1193180,Ti2(Ni7B2)3,"{'Ti': 2.0, 'Ni': 21.0, 'B': 6.0}",0.14812978191086443,8.053141734278597,,0.0
143,mp-1195915,Eu2TiO5,"{'Eu': 2.0, 'Ti': 1.0, 'O': 5.0}",0.5039010729801195,6.1335546263523755,,0.0
144,mp-1199430,TiFeGe2,"{'Ti': 1.0, 'Fe': 1.0, 'Ge': 2.0}",0.1579187309422357,7.248802527108161,,0.0
145,mp-1199934,Ti3As,"{'Ti': 3.0, 'As': 1.0}",0.13563595333062645,5.488704086281003,,0.0
146,mp-1200087,La(TiAl10)2,"{'La': 1.0, 'Ti': 2.0, 'Al': 20.0}",0.09364230844357173,3.194940820555967,,0.0
147,mp-1204502,Pr(TiAl10)2,"{'Pr': 1.0, 'Ti': 2.0, 'Al': 20.0}",0.08993858432513645,3.226731745482487,,0.0
148,mp-1205449,K3TiCl6,"{'K': 3.0, 'Ti': 1.0, 'Cl': 6.0}",0.20814731858857055,2.2271124707186973,,0.0
149,mp-1206854,TiMnP,"{'Ti': 1.0, 'Mn': 1.0, 'P': 1.0}",0.11803472160991324,5.924225215104996,,0.0
150,mp-1208239,Ti5CuSn3,"{'Ti': 5.0, 'Cu': 1.0, 'Sn': 3.0}",0.13826266310983176,6.7446891143982235,,0.0
151,mp-1208257,Ti4CrBi2,"{'Ti': 4.0, 'Cr': 1.0, 'Bi': 2.0}",0.16296688047990524,7.742480659631149,,0.0
152,mp-1208323,Ti5CuBi3,"{'Ti': 5.0, 'Cu': 1.0, 'Bi': 3.0}",0.17109104395186855,9.052925600486873,,0.0
153,mp-1208403,TiFeGe,"{'Ti': 1.0, 'Fe': 1.0, 'Ge': 1.0}",0.17042650933160952,7.0340642271369935,,0.0
154,mp-1211304,Lu6Ti4Al43,"{'Lu': 6.0, 'Ti': 4.0, 'Al': 43.0}",0.09751247974951156,4.2753225830501815,,0.0
155,mp-1213416,Er6Ti4Al43,"{'Er': 6.0, 'Ti': 4.0, 'Al': 43.0}",0.09889167562660832,4.149415852198527,,0.0
156,mp-1213815,Ce3TiSb5,"{'Ce': 3.0, 'Ti': 1.0, 'Sb': 5.0}",0.12926386829156217,7.606294653339098,,0.0
157,mp-1216946,TiMnCr,"{'Ti': 1.0, 'Mn': 1.0, 'Cr': 1.0}",0.18381887075515704,6.555149649728201,,0.0
158,mp-1217076,Ti2AlGe3,"{'Ti': 2.0, 'Al': 1.0, 'Ge': 3.0}",0.12669400449393517,5.873817232872047,,0.0
159,mp-1217077,Ti2Si6W,"{'Ti': 2.0, 'Si': 6.0, 'W': 1.0}",0.0876083013488553,5.915116208262738,,0.0
160,mp-1217098,Ti4CuAg,"{'Ti': 4.0, 'Cu': 1.0, 'Ag': 1.0}",0.1833197170505716,6.125035924411375,,0.1287466666655135
161,mp-1217136,Ti8Al15Rh7,"{'Ti': 8.0, 'Al': 15.0, 'Rh': 7.0}",0.11362725283836922,5.456167621887662,,0.0
162,mp-1217253,Ti10CrSb5,"{'Ti': 10.0, 'Cr': 1.0, 'Sb': 5.0}",0.14217018261548842,6.508588720153668,,0.0
163,mp-1217891,TaTiAl6,"{'Ta': 1.0, 'Ti': 1.0, 'Al': 6.0}",0.09875641251167679,5.074272364773382,,0.0
164,mp-1245745,MgTiN2,"{'Mg': 1.0, 'Ti': 1.0, 'N': 2.0}",0.1843610964125057,4.174752293390556,,0.0
165,mp-1409,TiNi3,"{'Ti': 1.0, 'Ni': 3.0}",0.16434861670166484,7.958129733816652,"{'G_Reuss': 96.0, 'G_VRH': 97.0, 'G_Voigt': 98.0, 'G_Voigt_Reuss_Hill': 97.0, 'K_Reuss': 192.0, 'K_VRH': 192.0, 'K_Voigt': 192.0, 'K_Voigt_Reuss_Hill': 192.0, 'elastic_anisotropy': 0.1, 'elastic_tensor': [[334.0, 133.0, 111.0, 0.0, 0.0, 0.0], [133.0, 334.0, 111.0, 0.0, 0.0, 0.0], [111.0, 111.0, 356.0, 0.0, 0.0, 0.0], [0.0, 0.0, 0.0, 83.0, 0.0, 0.0], [0.0, 0.0, 0.0, 0.0, 83.0, 0.0], [0.0, 0.0, 0.0, 0.0, 0.0, 101.0]], 'homogeneous_poisson': 0.28, 'poisson_ratio': 0.28, 'universal_anisotropy': 0.1, 'elastic_tensor_original': [[335.23606770839444, 134.0183368296482, 112.64702467911768, 0.0, 0.0, 0.0], [131.23924907307475, 333.3099679917781, 110.8941800929488, 0.0, 0.0, 0.0], [109.29656176369942, 109.29654520469447, 356.4063101411222, 0.0, 0.0, 0.0], [-0.0009322730878326672, -0.0009837364076142488, -0.000946899750646495, 83.49239816016784, 0.0, 0.0], [-0.002102852951218318, -0.0028650873542978854, -0.002467380129473393, 0.0, 83.47940168794915, 0.0], [0.0003133556918578174, 0.00029881908194411065, 0.00029580241816156225, 0.0, 0.0, 100.75525680173496]], 'compliance_tensor': [[3.7, -1.2, -0.8, 0.0, 0.0, -0.0], [-1.2, 3.7, -0.8, 0.0, -0.0, -0.0], [-0.8, -0.8, 3.3, -0.0, -0.0, 0.0], [0.0, 0.0, 0.0, 12.0, -0.0, 0.0], [0.0, 0.0, -0.0, -0.0, 12.0, 0.0], [-0.0, -0.0, 0.0, 0.0, -0.0, 9.9]], 'warnings': [], 'nsites': 16}",0.0
166,mp-15501,Sr4TiAs4,"{'Sr': 4.0, 'Ti': 1.0, 'As': 4.0}",0.16787577880689067,4.2355820490471645,,0.0
167,mp-17904,Nd2TiO5,"{'Nd': 2.0, 'Ti': 1.0, 'O': 5.0}",0.5130378432265179,5.729321711435625,,0.0
168,mp-19963,TiFe2Sn,"{'Ti': 1.0, 'Fe': 2.0, 'Sn': 1.0}",0.18421765964796719,8.367357755094483,"{'G_Reuss': 106.0, 'G_VRH': 106.0, 'G_Voigt': 106.0, 'G_Voigt_Reuss_Hill': 106.0, 'K_Reuss': 181.0, 'K_VRH': 181.0, 'K_Voigt': 181.0, 'K_Voigt_Reuss_Hill': 181.0, 'elastic_anisotropy': 0.0, 'elastic_tensor': [[318.0, 113.0, 113.0, 0.0, 0.0, 0.0], [113.0, 318.0, 113.0, 0.0, 0.0, 0.0], [113.0, 113.0, 318.0, 0.0, 0.0, 0.0], [0.0, 0.0, 0.0, 108.0, 0.0, 0.0], [0.0, 0.0, 0.0, 0.0, 108.0, 0.0], [0.0, 0.0, 0.0, 0.0, 0.0, 108.0]], 'homogeneous_poisson': 0.26, 'poisson_ratio': 0.26, 'universal_anisotropy': 0.0, 'elastic_tensor_original': [[318.40122695319525, 112.5028056047912, 112.5028056047912, 0.0, 0.0, 0.0], [112.38719087627629, 318.48433060597995, 112.38719087627629, 0.0, 0.0, 0.0], [113.65376693334292, 113.65376693334292, 318.540560282663, 0.0, 0.0, 0.0], [-0.00017953641706778439, 0.0006797857215957121, 0.0007140623406099974, 107.7884788407191, 0.0, 0.0], [0.0001465631295732735, -6.913990387878679e-05, 0.00015054312404058482, 0.0, 107.7869507028436, 0.0], [-0.0009662553233338473, -0.001158398389540267, -0.0009654153245011799, 0.0, 0.0, 107.7878408316061]], 'compliance_tensor': [[3.9, -1.0, -1.0, 0.0, -0.0, -0.0], [-1.0, 3.9, -1.0, -0.0, 0.0, -0.0], [-1.0, -1.0, 3.9, -0.0, -0.0, 0.0], [0.0, -0.0, -0.0, 9.3, -0.0, -0.0], [-0.0, 0.0, -0.0, -0.0, 9.3, -0.0], [-0.0, -0.0, 0.0, -0.0, -0.0, 9.3]], 'warnings': [], 'nsites': 4}",0.0
169,mp-20339,Ti2InNi2,"{'Ti': 2.0, 'In': 1.0, 'Ni': 2.0}",0.16012164503510903,7.2366197333856634,,0.0
170,mp-20459,TiPbO3,"{'Ti': 1.0, 'Pb': 1.0, 'O': 3.0}",0.4877818034136472,7.295112048795698,"{'G_Reuss': 31.0, 'G_VRH': 39.0, 'G_Voigt': 46.0, 'G_Voigt_Reuss_Hill': 39.0, 'K_Reuss': 44.0, 'K_VRH': 63.0, 'K_Voigt': 81.0, 'K_Voigt_Reuss_Hill': 63.0, 'elastic_anisotropy': 3.29, 'elastic_tensor': [[173.0, 79.0, 46.0, 0.0, 0.0, 0.0], [79.0, 173.0, 46.0, 0.0, 0.0, 0.0], [46.0, 46.0, 44.0, 0.0, 0.0, 0.0], [0.0, 0.0, 0.0, 35.0, 0.0, 0.0], [0.0, 0.0, 0.0, 0.0, 35.0, 0.0], [0.0, 0.0, 0.0, 0.0, 0.0, 87.0]], 'homogeneous_poisson': 0.24, 'poisson_ratio': 0.24, 'universal_anisotropy': 3.29, 'elastic_tensor_original': [[173.08140438001243, 79.14817395151258, 46.849662254611964, 0.0, 0.0, 0.0], [79.15649791784574, 173.07861696174038, 46.82936055569655, 0.0, 0.0, 0.0], [45.055162984611016, 45.055162984611016, 43.73498580069654, 0.0, 0.0, 0.0], [-0.00885574282142848, 0.0006735939236236483, -0.07448110891953073, 35.22827909919235, 0.0, 0.0], [-0.000710180450779119, 0.0040638287470994554, -0.0031948369626162276, 0.0, 35.243499886609165, 0.0], [0.0005560288084485942, 0.00040428886977414175, 0.0006548776217092783, 0.0, 0.0, 87.12009181935161]], 'compliance_tensor': [[8.5, -2.1, -6.7, -0.0, 0.0, 0.0], [-2.1, 8.5, -6.7, -0.0, -0.0, -0.0], [-6.7, -6.7, 37.0, 0.0, -0.0, -0.0], [-0.0, -0.0, 0.0, 28.4, -0.0, -0.0], [0.0, -0.0, -0.0, -0.0, 28.4, 0.0], [0.0, -0.0, -0.0, -0.0, 0.0, 11.5]], 'warnings': [], 'nsites': 5}",0.0
171,mp-20952,TiNiSb,"{'Ti': 1.0, 'Ni': 1.0, 'Sb': 1.0}",0.1275434044249476,7.23884154747617,"{'G_Reuss': 57.0, 'G_VRH': 57.0, 'G_Voigt': 57.0, 'G_Voigt_Reuss_Hill': 57.0, 'K_Reuss': 128.0, 'K_VRH': 128.0, 'K_Voigt': 128.0, 'K_Voigt_Reuss_Hill': 128.0, 'elastic_anisotropy': 0.0, 'elastic_tensor': [[203.0, 91.0, 91.0, 0.0, 0.0, 0.0], [91.0, 203.0, 91.0, 0.0, 0.0, 0.0], [91.0, 91.0, 203.0, 0.0, 0.0, 0.0], [0.0, 0.0, 0.0, 57.0, 0.0, 0.0], [0.0, 0.0, 0.0, 0.0, 57.0, 0.0], [0.0, 0.0, 0.0, 0.0, 0.0, 57.0]], 'homogeneous_poisson': 0.31, 'poisson_ratio': 0.31, 'universal_anisotropy': 0.0, 'elastic_tensor_original': [[200.7824101238687, 88.93364642885317, 88.93364642885317, 0.0, 0.0, 0.0], [94.39688351787933, 206.1862923049467, 94.39688351787933, 0.0, 0.0, 0.0], [89.79201114653608, 89.79207197687444, 201.79459304532526, -0.0006051756534282342, -0.0006600512750633082, -0.0005658785330757514], [-0.04516669769864904, -0.04267343392518315, -0.042520421188441085, 57.2466137840892, 0.0, 0.0], [0.028827383379725458, 0.027762496872905097, 0.028603594913228222, 0.0, 57.26352350782684, 0.0], [-0.1350160501406901, -0.13350924073914627, -0.1399725939973905, 0.0, 0.0, 57.25945537038433]], 'compliance_tensor': [[6.8, -2.1, -2.1, 0.0, 0.0, 0.0], [-2.1, 6.8, -2.1, 0.0, 0.0, 0.0], [-2.1, -2.1, 6.8, 0.0, 0.0, 0.0], [0.0, 0.0, 0.0, 17.5, 0.0, 0.0], [0.0, 0.0, 0.0, 0.0, 17.5, 0.0], [0.0, 0.0, 0.0, 0.0, 0.0, 17.5]], 'warnings': [], 'nsites': 3}",0.0
172,mp-21227,U3TiSb5,"{'U': 3.0, 'Ti': 1.0, 'Sb': 5.0}",0.12104032909614021,10.279309021429919,,0.0
173,mp-21540,Li3TiF6,"{'Li': 3.0, 'Ti': 1.0, 'F': 6.0}",0.18482938395240647,2.727678925201347,,0.0
174,mp-2156,TiS2,"{'Ti': 1.0, 'S': 2.0}",0.1278256188500087,2.865289943255333,"{'G_Reuss': 3.0, 'G_VRH': 14.0, 'G_Voigt': 25.0, 'G_Voigt_Reuss_Hill': 14.0, 'K_Reuss': 4.0, 'K_VRH': 18.0, 'K_Voigt': 33.0, 'K_Voigt_Reuss_Hill': 18.0, 'elastic_anisotropy': 41.79, 'elastic_tensor': [[121.0, 25.0, 1.0, -1.0, 0.0, 0.0], [25.0, 121.0, 1.0, 1.0, 0.0, 0.0], [1.0, 1.0, 4.0, 0.0, 0.0, 0.0], [-1.0, 1.0, 0.0, 2.0, 0.0, 0.0], [0.0, 0.0, 0.0, 0.0, 2.0, -1.0], [0.0, 0.0, 0.0, 0.0, -1.0, 48.0]], 'homogeneous_poisson': 0.19, 'poisson_ratio': 0.19, 'universal_anisotropy': 41.79, 'elastic_tensor_original': [[121.08182096442923, 24.517618128208657, 2.1866796007392364, 3.7767099708644554, 0.0, 0.0], [25.023852366994475, 120.86061246586512, 2.102563787418793, -2.8009790874874576, 0.0, 0.0], [-0.46909943305834534, -0.4690993926584926, 3.647002484164419, 0.0, 0.0, 0.0], [0.10254508657438421, -0.3963999331217818, -0.1951922094126525, 1.542938588683811, 0.0, 0.0], [4.7989874186344e-05, -1.2416550165733113e-05, 1.9723272731056252e-05, 6.9199849958144185e-06, 2.049399824638591, 0.2729651066181855], [0.0007666343066682076, 0.03683279071349576, 0.03274013857201436, -0.048016320903895786, 0.28945775633861426, 47.708162389000385]], 'compliance_tensor': [[8.72308826311044, -1.843477445035275, -1.5803308398254328, 6.03099325332926, -5.223570310457128e-16, -3.5455115054934126e-07], [-1.843477445035275, 8.72308785371006, -1.5803308027406282, -6.030993111803057, -2.451305707218622e-07, -3.5455114332575974e-07], [-1.580330839825433, -1.580330802740628, 274.9238268563782, 4.96922245544508e-16, 2.5390062585690965e-16, 6.423277011047967e-08], [6.03099325332926, -6.030993111803058, 6.313233573304656e-16, 563.6249386006758, -1.1454307693438453e-05, -4.9026113400418e-07], [-1.4922702582852428e-15, -2.451305694969209e-07, 1.953175641846546e-16, -1.1454307694318411e-05, 563.6249518269705, 12.06198650665852], [-3.545511521987621e-07, -3.5455114141577525e-07, 6.423277005062502e-08, -4.902611353826274e-07, 12.06198650665852, 21.13313100689106]], 'warnings': [], 'nsites': 3}",0.0
175,mp-21712,Tb2Ti3Ge4,"{'Tb': 2.0, 'Ti': 3.0, 'Ge': 4.0}",0.13640265479289146,7.29996881714837,,0.0
176,mp-22662,TiGaPt,"{'Ti': 1.0, 'Ga': 1.0, 'Pt': 1.0}",0.1419501420045817,11.147470113345912,"{'G_Reuss': 52.0, 'G_VRH': 57.0, 'G_Voigt': 62.0, 'G_Voigt_Reuss_Hill': 57.0, 'K_Reuss': 160.0, 'K_VRH': 163.0, 'K_Voigt': 165.0, 'K_Voigt_Reuss_Hill': 163.0, 'elastic_anisotropy': 0.99, 'elastic_tensor': [[295.0, 144.0, 93.0, 0.0, 0.0, 0.0], [144.0, 295.0, 93.0, 0.0, 0.0, 0.0], [93.0, 93.0, 235.0, 0.0, 0.0, 0.0], [0.0, 0.0, 0.0, 34.0, 0.0, 0.0], [0.0, 0.0, 0.0, 0.0, 34.0, 0.0], [0.0, 0.0, 0.0, 0.0, 0.0, 75.0]], 'homogeneous_poisson': 0.34, 'poisson_ratio': 0.34, 'universal_anisotropy': 0.99, 'elastic_tensor_original': [[295.7294713435777, 143.23942566974537, 94.55444172286361, 0.0, 0.0, 0.0], [143.1045545615969, 294.6229856547367, 93.87985606390187, 0.0, 0.0, 0.0], [92.65153828850798, 92.65153036950568, 235.35082639704535, 0.0, 0.0, 0.0], [-0.0001989564077614202, 2.356719090479312e-05, -0.0001352129889495092, 33.91540559652175, 0.0, 0.0], [-3.6077173510282734e-05, 5.30095333871237e-05, 0.00013727948362297082, 0.0, 34.581733383831946, 0.0], [-6.984724432601462e-05, 7.14391044630866e-05, -1.1647046209186848e-05, 0.0, 0.0, 74.93718287967555]], 'compliance_tensor': [[4.7, -1.9, -1.1, -0.0, -0.0, 0.0], [-1.9, 4.7, -1.1, -0.0, 0.0, 0.0], [-1.1, -1.1, 5.1, 0.0, 0.0, -0.0], [-0.0, -0.0, 0.0, 29.2, 0.0, 0.0], [-0.0, 0.0, 0.0, 0.0, 29.2, 0.0], [0.0, 0.0, -0.0, 0.0, 0.0, 13.3]], 'warnings': [], 'nsites': 6}",0.0
177,mp-2591,Ti3O,"{'Ti': 3.0, 'O': 1.0}",0.2947876943215562,4.839896486858326,,0.0
178,mp-27264,NaTiF4,"{'Na': 1.0, 'Ti': 1.0, 'F': 4.0}",0.18134801185816446,2.9487290975914737,,0.0
179,mp-2731,TiGa3,"{'Ti': 1.0, 'Ga': 3.0}",0.12691367969074038,6.684291685114108,"{'G_Reuss': 72.0, 'G_VRH': 74.0, 'G_Voigt': 76.0, 'G_Voigt_Reuss_Hill': 74.0, 'K_Reuss': 99.0, 'K_VRH': 100.0, 'K_Voigt': 100.0, 'K_Voigt_Reuss_Hill': 100.0, 'elastic_anisotropy': 0.3, 'elastic_tensor': [[185.0, 82.0, 44.0, 0.0, 0.0, 0.0], [82.0, 185.0, 44.0, 0.0, 0.0, 0.0], [44.0, 44.0, 189.0, 0.0, 0.0, 0.0], [0.0, 0.0, 0.0, 72.0, 0.0, 0.0], [0.0, 0.0, 0.0, 0.0, 72.0, 0.0], [0.0, 0.0, 0.0, 0.0, 0.0, 108.0]], 'homogeneous_poisson': 0.2, 'poisson_ratio': 0.2, 'universal_anisotropy': 0.3, 'elastic_tensor_original': [[184.7929193698638, 81.74163901354655, 44.15843949717197, 0.0, 0.0, 0.0], [81.72283211315549, 184.77522700103043, 44.13996863892498, 0.0, 0.0, 0.0], [44.67301753277765, 44.67301753277765, 188.98130863789882, 0.0, 0.0, 0.0], [-9.437973925184252e-05, -0.00022105652915914423, 0.00021132349091992366, 71.98451605725464, 0.0, 0.0], [-0.00012009966203267119, -0.0001302851152751661, -0.0001640506769699259, 0.0, 71.98438560084504, 0.0], [2.7878656268655087e-05, -4.632470991233723e-05, -0.00013036157600711877, 0.0, 0.0, 108.18809706680996]], 'compliance_tensor': [[6.9, -2.8, -1.0, 0.0, 0.0, 0.0], [-2.8, 6.9, -1.0, -0.0, -0.0, -0.0], [-1.0, -1.0, 5.7, -0.0, 0.0, -0.0], [0.0, -0.0, -0.0, 13.9, 0.0, 0.0], [0.0, -0.0, 0.0, 0.0, 13.9, 0.0], [0.0, -0.0, -0.0, 0.0, 0.0, 9.2]], 'warnings': [], 'nsites': 4}",0.0
180,mp-2767,TiGa,"{'Ti': 1.0, 'Ga': 1.0}",0.14049427665918923,6.1976826619748895,"{'G_Reuss': 67.0, 'G_VRH': 72.0, 'G_Voigt': 76.0, 'G_Voigt_Reuss_Hill': 72.0, 'K_Reuss': 115.0, 'K_VRH': 115.0, 'K_Voigt': 115.0, 'K_Voigt_Reuss_Hill': 115.0, 'elastic_anisotropy': 0.62, 'elastic_tensor': [[200.0, 58.0, 82.0, 0.0, 0.0, 0.0], [58.0, 200.0, 82.0, 0.0, 0.0, 0.0], [82.0, 82.0, 188.0, 0.0, 0.0, 0.0], [0.0, 0.0, 0.0, 105.0, 0.0, 0.0], [0.0, 0.0, 0.0, 0.0, 105.0, 0.0], [0.0, 0.0, 0.0, 0.0, 0.0, 47.0]], 'homogeneous_poisson': 0.24, 'poisson_ratio': 0.24, 'universal_anisotropy': 0.62, 'elastic_tensor_original': [[199.56151327510784, 58.02940564921058, 81.01697761964968, 0.0, 0.0, 0.0], [58.02445978447929, 199.55717101272253, 81.0120675928365, 0.0, 0.0, 0.0], [83.85333504834846, 83.85333504834846, 188.04870188894918, 0.0, 0.0, 0.0], [-0.00050482006574036, -0.0005078900661413103, -0.0005118800666614201, 105.29950641647736, 0.0, 0.0], [-0.0009696434596090882, -0.0010030901306316306, -0.0009354667884922369, 0.0, 105.29953412648096, 0.0], [0.000367203342028365, 0.000401243342834074, 0.0005077833453578364, 0.0, 0.0, 47.045971400629504]], 'compliance_tensor': [[6.2, -0.8, -2.4, 0.0, 0.0, 0.0], [-0.8, 6.2, -2.4, -0.0, 0.0, 0.0], [-2.4, -2.4, 7.4, 0.0, -0.0, 0.0], [0.0, -0.0, 0.0, 9.5, -0.0, 0.0], [0.0, 0.0, -0.0, -0.0, 9.5, 0.0], [0.0, 0.0, 0.0, 0.0, 0.0, 21.3]], 'warnings': [], 'nsites': 2}",0.0
181,mp-27828,Cs2TiCl6,"{'Cs': 2.0, 'Ti': 1.0, 'Cl': 6.0}",0.2176201641543586,2.963362008986589,"{'G_Reuss': 5.0, 'G_VRH': 5.0, 'G_Voigt': 5.0, 'G_Voigt_Reuss_Hill': 5.0, 'K_Reuss': 9.0, 'K_VRH': 9.0, 'K_Voigt': 9.0, 'K_Voigt_Reuss_Hill': 9.0, 'elastic_anisotropy': 0.06, 'elastic_tensor': [[14.0, 6.0, 6.0, 0.0, 0.0, 0.0], [6.0, 14.0, 6.0, 0.0, 0.0, 0.0], [6.0, 6.0, 14.0, 0.0, 0.0, 0.0], [0.0, 0.0, 0.0, 5.0, 0.0, 0.0], [0.0, 0.0, 0.0, 0.0, 5.0, 0.0], [0.0, 0.0, 0.0, 0.0, 0.0, 5.0]], 'homogeneous_poisson': 0.27, 'poisson_ratio': 0.27, 'universal_anisotropy': 0.06, 'elastic_tensor_original': [[14.419691733830307, 6.116502161693116, 6.116502161693116, 0.0, 0.0, 0.0], [6.1167043993509, 14.419306543411732, 6.1167043993509, 0.0, 0.0, 0.0], [6.117121345236736, 6.117121345236736, 14.419393208414839, 0.0, 0.0, 0.0], [0.003226483884545204, -0.1319459902512119, 0.13860361797633008, 5.225098456710457, 0.0, 0.0], [0.13906740430630268, 0.001876557610975852, -0.13272519002270183, 0.0, 5.220711821705175, 0.0], [-0.006714370972626732, -0.0066123039755434775, -0.007685273815673885, 0.0, 0.0, 5.224060613683496]], 'compliance_tensor': [[92.8, -27.6, -27.6, 0.0, -0.0, 0.0], [-27.6, 92.8, -27.6, 0.0, 0.0, -0.0], [-27.6, -27.6, 92.8, -0.0, 0.0, 0.0], [0.0, 0.0, -0.0, 191.5, -0.0, -0.0], [-0.0, 0.0, 0.0, -0.0, 191.5, -0.0], [0.0, -0.0, 0.0, -0.0, -0.0, 191.5]], 'warnings': [], 'nsites': 9}",0.0