,mp_id,Formula,Composition,IPF,Density,Elastic_Tensor,E_above_Hull
461,mp-861908,TaTiRu2,"{'Ta': 1.0, 'Ti': 1.0, 'Ru': 2.0}",0.11893240659376417,11.63238220857548,"{'G_Reuss': 79.0, 'G_VRH': 79.0, 'G_Voigt': 80.0, 'G_Voigt_Reuss_Hill': 79.0, 'K_Reuss': 231.0, 'K_VRH': 231.0, 'K_Voigt': 231.0, 'K_Voigt_Reuss_Hill': 231.0, 'elastic_anisotropy': 0.06, 'elastic_tensor': [[324.0, 185.0, 185.0, 0.0, 0.0, 0.0], [185.0, 324.0, 185.0, 0.0, 0.0, 0.0], [185.0, 185.0, 324.0, 0.0, 0.0, 0.0], [0.0, 0.0, 0.0, 87.0, 0.0, 0.0], [0.0, 0.0, 0.0, 0.0, 87.0, 0.0], [0.0, 0.0, 0.0, 0.0, 0.0, 87.0]], 'homogeneous_poisson': 0.35, 'poisson_ratio': 0.35, 'universal_anisotropy': 0.06, 'elastic_tensor_original': [[323.94174765303734, 184.70576090752553, 184.70576090752553, 0.0, 0.0, 0.0], [184.69354088937325, 323.93009555754224, 184.69354088937325, 0.0, 0.0, 0.0], [184.70519010457372, 184.70519010457372, 323.94159290797927, 0.0, 0.0, 0.0], [7.393174558290955e-06, 1.7131753231050864e-06, 1.4013163650346954e-05, 86.64168419678533, 0.0, 0.0], [7.049849869487663e-06, 2.5998396281843472e-06, 1.0619814507536676e-05, 0.0, 86.64168264354022, 0.0], [-8.888036565362239e-05, -4.592709304340181e-05, -5.619707411662341e-05, 0.0, 0.0, 86.64166361018295]], 'compliance_tensor': [[5.3, -1.9, -1.9, 0.0, -0.0, 0.0], [-1.9, 5.3, -1.9, 0.0, 0.0, -0.0], [-1.9, -1.9, 5.3, -0.0, 0.0, 0.0], [0.0, 0.0, -0.0, 11.5, -0.0, -0.0], [-0.0, 0.0, 0.0, -0.0, 11.5, -0.0], [0.0, -0.0, 0.0, -0.0, -0.0, 11.5]], 'warnings': [], 'nsites': 4}",0.0
462,mp-861912,TaTiTc2,"{'Ta': 1.0, 'Ti': 1.0, 'Tc': 2.0}",0.1327830730047903,11.265013084980856,"{'G_Reuss': 99.0, 'G_VRH': 101.0, 'G_Voigt': 103.0, 'G_Voigt_Reuss_Hill': 101.0, 'K_Reuss': 229.0, 'K_VRH': 229.0, 'K_Voigt': 229.0, 'K_Voigt_Reuss_Hill': 229.0, 'elastic_anisotropy': 0.24, 'elastic_tensor': [[405.0, 141.0, 141.0, 0.0, 0.0, 0.0], [141.0, 405.0, 141.0, 0.0, 0.0, 0.0], [141.0, 141.0, 405.0, 0.0, 0.0, 0.0], [0.0, 0.0, 0.0, 84.0, 0.0, 0.0], [0.0, 0.0, 0.0, 0.0, 84.0, 0.0], [0.0, 0.0, 0.0, 0.0, 0.0, 84.0]], 'homogeneous_poisson': 0.31, 'poisson_ratio': 0.31, 'universal_anisotropy': 0.24, 'elastic_tensor_original': [[405.00133400280885, 141.0395279466178, 141.0395279466178, 0.0, 0.0, 0.0], [141.04492936386092, 405.00525715287966, 141.04492936386092, 0.0, 0.0, 0.0], [141.04431660200484, 141.04431660200484, 405.00439491866786, 0.0, 0.0, 0.0], [-4.744332995126388e-05, -2.939332403399265e-05, -3.2819995720928065e-05, 84.42819865856235, 0.0, 0.0], [-3.607998543358785e-05, -8.377001424885196e-05, -6.794001029380065e-05, 0.0, 84.42803904512351, 0.0], [-4.166668925727922e-05, -4.068335341395792e-05, -7.363337824570149e-05, 0.0, 0.0, 84.42810714849703]], 'compliance_tensor': [[3.0, -0.8, -0.8, -0.0, 0.0, 0.0], [-0.8, 3.0, -0.8, 0.0, -0.0, 0.0], [-0.8, -0.8, 3.0, 0.0, 0.0, -0.0], [-0.0, 0.0, 0.0, 11.8, -0.0, -0.0], [0.0, -0.0, 0.0, -0.0, 11.8, -0.0], [0.0, 0.0, -0.0, -0.0, -0.0, 11.8]], 'warnings': [], 'nsites': 4}",0.0
463,mp-861961,TiZnRh2,"{'Ti': 1.0, 'Zn': 1.0, 'Rh': 2.0}",0.1558405427770336,9.271396328551523,"{'G_Reuss': 82.0, 'G_VRH': 83.0, 'G_Voigt': 84.0, 'G_Voigt_Reuss_Hill': 83.0, 'K_Reuss': 193.0, 'K_VRH': 193.0, 'K_Voigt': 193.0, 'K_Voigt_Reuss_Hill': 193.0, 'elastic_anisotropy': 0.14, 'elastic_tensor': [[283.0, 148.0, 148.0, 0.0, 0.0, 0.0], [148.0, 283.0, 148.0, 0.0, 0.0, 0.0], [148.0, 148.0, 283.0, 0.0, 0.0, 0.0], [0.0, 0.0, 0.0, 95.0, 0.0, 0.0], [0.0, 0.0, 0.0, 0.0, 95.0, 0.0], [0.0, 0.0, 0.0, 0.0, 0.0, 95.0]], 'homogeneous_poisson': 0.31, 'poisson_ratio': 0.31, 'universal_anisotropy': 0.14, 'elastic_tensor_original': [[281.9968539760317, 148.28202897926687, 148.28323132321646, 0.0005790275910811637, 5.570035834823804e-05, 0.00011501166399627229], [147.4380977358509, 282.57990626884333, 147.43814599398152, 7.039343541279028e-05, 0.0, 0.0], [147.44662281272704, 147.44657455598278, 283.90385245379406, 7.06140034372746e-05, 0.0, 0.0], [0.0003511930540770597, 0.0004545765322661661, 0.0006241389204506258, 94.71163313735718, 0.0, 0.0], [0.001491551537499067, 0.0009933444875098165, 0.0014113393101353, 0.0, 94.71102679705525, 1.5586683353672493e-05], [0.0002810315758898625, 0.000253892286366622, -7.23214128417409e-05, 0.0, 1.5586657968136304e-05, 94.71095300582954]], 'compliance_tensor': [[5.5, -1.9, -1.9, -0.0, -0.0, 0.0], [-1.9, 5.5, -1.9, 0.0, 0.0, 0.0], [-1.9, -1.9, 5.5, 0.0, -0.0, -0.0], [-0.0, 0.0, 0.0, 10.6, 0.0, -0.0], [-0.0, 0.0, -0.0, 0.0, 10.6, 0.0], [0.0, 0.0, -0.0, -0.0, 0.0, 10.6]], 'warnings': [], 'nsites': 4}",0.0
464,mp-861983,Ti2MnFe,"{'Ti': 2.0, 'Mn': 1.0, 'Fe': 1.0}",0.17020698849289723,6.549536522803793,"{'G_Reuss': 74.0, 'G_VRH': 78.0, 'G_Voigt': 83.0, 'G_Voigt_Reuss_Hill': 78.0, 'K_Reuss': 180.0, 'K_VRH': 180.0, 'K_Voigt': 180.0, 'K_Voigt_Reuss_Hill': 180.0, 'elastic_anisotropy': 0.63, 'elastic_tensor': [[339.0, 101.0, 101.0, 0.0, 0.0, 0.0], [101.0, 339.0, 101.0, 0.0, 0.0, 0.0], [101.0, 101.0, 339.0, 0.0, 0.0, 0.0], [0.0, 0.0, 0.0, 59.0, 0.0, 0.0], [0.0, 0.0, 0.0, 0.0, 59.0, 0.0], [0.0, 0.0, 0.0, 0.0, 0.0, 59.0]], 'homogeneous_poisson': 0.31, 'poisson_ratio': 0.31, 'universal_anisotropy': 0.63, 'elastic_tensor_original': [[338.8278747689678, 99.51054345581656, 99.51054345581656, 0.0, 0.0, 0.0], [101.18345411182598, 338.5850843908851, 101.18345411182598, 0.0, 0.0, 0.0], [101.15184329215258, 101.15184329215258, 338.5562079920648, 0.0, 0.0, 0.0], [-0.00022927634209774888, -0.00023043636073739375, -0.00022304634014538852, 58.61699274195926, 0.0, 0.0], [-9.196950918323678e-05, -8.183947230823709e-05, -8.543282422810496e-05, 0.0, 58.61698159863603, 0.0], [-5.060022414903217e-05, -6.263356604428783e-05, -7.624023726764301e-05, 0.0, 0.0, 58.61696380528193]], 'compliance_tensor': [[3.4, -0.8, -0.8, 0.0, 0.0, 0.0], [-0.8, 3.4, -0.8, -0.0, -0.0, 0.0], [-0.8, -0.8, 3.4, -0.0, 0.0, -0.0], [0.0, -0.0, -0.0, 17.1, 0.0, 0.0], [0.0, -0.0, 0.0, 0.0, 17.1, -0.0], [0.0, 0.0, -0.0, 0.0, -0.0, 17.1]], 'warnings': [], 'nsites': 4}",0.0
465,mp-864908,MgTiIr2,"{'Mg': 1.0, 'Ti': 1.0, 'Ir': 2.0}",0.1509525479011244,12.713547624267859,"{'G_Reuss': 109.0, 'G_VRH': 109.0, 'G_Voigt': 110.0, 'G_Voigt_Reuss_Hill': 109.0, 'K_Reuss': 199.0, 'K_VRH': 199.0, 'K_Voigt': 199.0, 'K_Voigt_Reuss_Hill': 199.0, 'elastic_anisotropy': 0.03, 'elastic_tensor': [[331.0, 133.0, 133.0, 0.0, 0.0, 0.0], [133.0, 331.0, 133.0, 0.0, 0.0, 0.0], [133.0, 133.0, 331.0, 0.0, 0.0, 0.0], [0.0, 0.0, 0.0, 117.0, 0.0, 0.0], [0.0, 0.0, 0.0, 0.0, 117.0, 0.0], [0.0, 0.0, 0.0, 0.0, 0.0, 117.0]], 'homogeneous_poisson': 0.27, 'poisson_ratio': 0.27, 'universal_anisotropy': 0.03, 'elastic_tensor_original': [[330.6853480336897, 132.55268939237808, 132.55268939237808, 0.0, 0.0, 0.0], [132.55640331458, 330.68869759924956, 132.55640331458, 0.0, 0.0, 0.0], [132.572281977882, 132.572281977882, 330.7039803821498, 0.0, 0.0, 0.0], [1.2810009722007051e-05, 3.5993342845831266e-05, 3.4376675597536564e-05, 116.52481291813717, 0.0, 0.0], [1.885335979807198e-05, 2.5626684625697383e-05, 1.577003461238939e-05, 0.0, 116.52481487816496, 0.0], [-3.521333622569855e-05, -4.226000482812711e-05, -5.199999838663519e-05, 0.0, 0.0, 116.5247854448381]], 'compliance_tensor': [[3.9, -1.1, -1.1, 0.0, 0.0, -0.0], [-1.1, 3.9, -1.1, -0.0, 0.0, 0.0], [-1.1, -1.1, 3.9, 0.0, -0.0, 0.0], [0.0, -0.0, 0.0, 8.6, -0.0, -0.0], [0.0, 0.0, -0.0, -0.0, 8.6, -0.0], [-0.0, 0.0, 0.0, -0.0, -0.0, 8.6]], 'warnings': [], 'nsites': 4}",0.0
466,mp-865079,TiZnPd2,"{'Ti': 1.0, 'Zn': 1.0, 'Pd': 2.0}",0.17347978398633668,8.93070996457023,"{'G_Reuss': -37.0, 'G_VRH': 0.0, 'G_Voigt': 37.0, 'G_Voigt_Reuss_Hill': 0.0, 'K_Reuss': 147.0, 'K_VRH': 147.0, 'K_Voigt': 147.0, 'K_Voigt_Reuss_Hill': 147.0, 'elastic_anisotropy': -10.0, 'elastic_tensor': [[133.0, 155.0, 155.0, 0.0, 0.0, 0.0], [155.0, 133.0, 155.0, 0.0, 0.0, 0.0], [155.0, 155.0, 133.0, 0.0, 0.0, 0.0], [0.0, 0.0, 0.0, 69.0, 0.0, 0.0], [0.0, 0.0, 0.0, 0.0, 69.0, 0.0], [0.0, 0.0, 0.0, 0.0, 0.0, 69.0]], 'homogeneous_poisson': 0.5, 'poisson_ratio': 0.5, 'universal_anisotropy': -10.0, 'elastic_tensor_original': [[140.04290457028912, 151.45494517681664, 151.45494517681664, 0.0, 0.0, 0.0], [159.0521078201478, 125.28473674067867, 159.0521078201478, 0.0, 0.0, 0.0], [153.89865104196898, 153.89865104196898, 132.48440677530647, 0.0, 0.0, 0.0], [-2.5096686324176048e-05, -1.8066680815433556e-05, -2.1783350396084806e-05, 68.50531463956919, 0.0, 0.0], [5.1946707357214124e-05, -1.075667509189289e-05, 5.944337989476498e-05, 0.0, 68.50522970950267, 0.0], [0.00015761012345613933, 0.00016394012841270932, 8.745006850068936e-05, 0.0, 0.0, 68.50521419949051]], 'compliance_tensor': [[-29.3, 15.8, 15.8, 0.0, -0.0, 0.0], [15.8, -29.3, 15.8, 0.0, -0.0, -0.0], [15.8, 15.8, -29.3, -0.0, 0.0, -0.0], [0.0, 0.0, -0.0, 14.6, 0.0, 0.0], [-0.0, -0.0, 0.0, 0.0, 14.6, 0.0], [0.0, -0.0, -0.0, 0.0, 0.0, 14.6]], 'warnings': ['Elastic tensor has a negative eigenvalue', 'c11 and c12 are within 5% or c12 is greater than c11', 'c11 and c13 are within 5% or c13 is greater than c11', 'c11 and c23 are within 5% or c23 is greater than c11', 'One or more K, G below 2 GPa'], 'nsites': 4}",0.0
467,mp-865653,TiNbRe2,"{'Ti': 1.0, 'Nb': 1.0, 'Re': 2.0}",0.12441602270764168,13.374318316308761,"{'G_Reuss': 114.0, 'G_VRH': 115.0, 'G_Voigt': 115.0, 'G_Voigt_Reuss_Hill': 115.0, 'K_Reuss': 254.0, 'K_VRH': 254.0, 'K_Voigt': 254.0, 'K_Voigt_Reuss_Hill': 254.0, 'elastic_anisotropy': 0.04, 'elastic_tensor': [[425.0, 168.0, 168.0, 0.0, 0.0, 0.0], [168.0, 425.0, 168.0, 0.0, 0.0, 0.0], [168.0, 168.0, 425.0, 0.0, 0.0, 0.0], [0.0, 0.0, 0.0, 106.0, 0.0, 0.0], [0.0, 0.0, 0.0, 0.0, 106.0, 0.0], [0.0, 0.0, 0.0, 0.0, 0.0, 106.0]], 'homogeneous_poisson': 0.3, 'poisson_ratio': 0.3, 'universal_anisotropy': 0.04, 'elastic_tensor_original': [[430.37808850565403, 165.57501308712543, 165.57501308712543, 0.0, 0.0, 0.0], [169.75014056443, 422.33435184702154, 169.75014056443, 0.0, 0.0, 0.0], [169.60884972280522, 169.60884972280522, 422.2068586190336, 0.0, 0.0, 0.0], [0.0011913474699378095, 0.01910262621335253, -0.0027624085292296957, 106.44792117291145, 0.0, 0.0], [-0.017785225325086255, -0.001308747549093521, 0.003797539227172607, 0.0, 106.45145403196021, 0.0], [0.029578056609782553, 0.007842631954591462, 0.011247160916774598, 0.0, 0.0, 106.44769018275571]], 'compliance_tensor': [[3.0, -0.9, -0.9, -0.0, -0.0, 0.0], [-0.9, 3.0, -0.9, 0.0, -0.0, -0.0], [-0.9, -0.9, 3.0, -0.0, 0.0, -0.0], [-0.0, 0.0, -0.0, 9.4, -0.0, -0.0], [-0.0, -0.0, 0.0, -0.0, 9.4, -0.0], [0.0, -0.0, -0.0, -0.0, -0.0, 9.4]], 'warnings': [], 'nsites': 4}",0.0
468,mp-865656,TiMn2W,"{'Ti': 1.0, 'Mn': 2.0, 'W': 1.0}",0.12742539392074806,10.694686868620503,"{'G_Reuss': 114.0, 'G_VRH': 120.0, 'G_Voigt': 126.0, 'G_Voigt_Reuss_Hill': 120.0, 'K_Reuss': 243.0, 'K_VRH': 243.0, 'K_Voigt': 243.0, 'K_Voigt_Reuss_Hill': 243.0, 'elastic_anisotropy': 0.53, 'elastic_tensor': [[479.0, 125.0, 125.0, 0.0, 0.0, 0.0], [125.0, 479.0, 125.0, 0.0, 0.0, 0.0], [125.0, 125.0, 479.0, 0.0, 0.0, 0.0], [0.0, 0.0, 0.0, 92.0, 0.0, 0.0], [0.0, 0.0, 0.0, 0.0, 92.0, 0.0], [0.0, 0.0, 0.0, 0.0, 0.0, 92.0]], 'homogeneous_poisson': 0.29, 'poisson_ratio': 0.29, 'universal_anisotropy': 0.53, 'elastic_tensor_original': [[479.05622235165896, 125.05841551974687, 125.05841551974687, 0.0, 0.0, 0.0], [125.03958460178937, 479.0371455330897, 125.03958460178937, 0.0, 0.0, 0.0], [125.55380998041673, 125.55380998041673, 478.9064181576491, 0.0, 0.0, 0.0], [-0.0029085970389906026, -0.0028243504580874284, -0.00282313045932931, 92.10799090219436, 0.0, 0.0], [-0.001902741396303962, -0.0019573713406910906, -0.0019033347290333122, 0.0, 92.1079839788681, 0.0], [0.001758904876064922, 0.0017575115441507067, 0.0018030081644993133, 0.0, 0.0, 92.10798635886565]], 'compliance_tensor': [[2.3, -0.5, -0.5, -0.0, 0.0, 0.0], [-0.5, 2.3, -0.5, 0.0, 0.0, 0.0], [-0.5, -0.5, 2.3, -0.0, 0.0, 0.0], [-0.0, 0.0, -0.0, 10.9, -0.0, -0.0], [0.0, 0.0, 0.0, -0.0, 10.9, 0.0], [0.0, 0.0, 0.0, -0.0, 0.0, 10.9]], 'warnings': [], 'nsites': 4}",0.0
469,mp-865678,TiMn2V,"{'Ti': 1.0, 'Mn': 2.0, 'V': 1.0}",0.136788880312811,6.930633199021836,"{'G_Reuss': 76.0, 'G_VRH': 82.0, 'G_Voigt': 89.0, 'G_Voigt_Reuss_Hill': 82.0, 'K_Reuss': 192.0, 'K_VRH': 192.0, 'K_Voigt': 192.0, 'K_Voigt_Reuss_Hill': 192.0, 'elastic_anisotropy': 0.9, 'elastic_tensor': [[372.0, 101.0, 101.0, 0.0, 0.0, 0.0], [101.0, 372.0, 101.0, 0.0, 0.0, 0.0], [101.0, 101.0, 372.0, 0.0, 0.0, 0.0], [0.0, 0.0, 0.0, 58.0, 0.0, 0.0], [0.0, 0.0, 0.0, 0.0, 58.0, 0.0], [0.0, 0.0, 0.0, 0.0, 0.0, 58.0]], 'homogeneous_poisson': 0.31, 'poisson_ratio': 0.31, 'universal_anisotropy': 0.9, 'elastic_tensor_original': [[376.0036352998304, 104.44898388849761, 104.44898388849761, 0.0, 0.0, 0.0], [99.23264975671508, 370.1333129243105, 99.23440623062557, 6.656499991787954e-06, 6.199366859821792e-05, 0.00018068788531925615], [99.82639250970811, 99.82679037593049, 370.96584320123304, 0.00012049868961037832, -9.463457819650347e-05, -7.189821979081808e-05], [-3.946998966113162e-05, -3.22733248795125e-05, -3.6213323847396694e-05, 58.433578757958244, 0.0, 0.0], [-0.00013612329767890373, -0.00014241662936328856, -0.00014015329662150973, 0.0, 58.43357136129352, 0.0], [0.000645083164368809, 0.0008535197764405495, 0.0003824498998264868, 0.0, 0.0, 58.43406028116545]], 'compliance_tensor': [[3.0, -0.6, -0.6, 0.0, -0.0, 0.0], [-0.6, 3.0, -0.6, 0.0, 0.0, -0.0], [-0.6, -0.6, 3.0, -0.0, 0.0, 0.0], [0.0, 0.0, -0.0, 17.1, 0.0, 0.0], [-0.0, 0.0, 0.0, 0.0, 17.1, 0.0], [0.0, -0.0, 0.0, 0.0, 0.0, 17.1]], 'warnings': [], 'nsites': 4}",0.0
470,mp-865928,Ti2TcPt,"{'Ti': 2.0, 'Tc': 1.0, 'Pt': 1.0}",0.14796710281816186,10.533932931783644,"{'G_Reuss': 75.0, 'G_VRH': 76.0, 'G_Voigt': 77.0, 'G_Voigt_Reuss_Hill': 76.0, 'K_Reuss': 202.0, 'K_VRH': 202.0, 'K_Voigt': 202.0, 'K_Voigt_Reuss_Hill': 202.0, 'elastic_anisotropy': 0.11, 'elastic_tensor': [[286.0, 160.0, 160.0, 0.0, 0.0, 0.0], [160.0, 286.0, 160.0, 0.0, 0.0, 0.0], [160.0, 160.0, 286.0, 0.0, 0.0, 0.0], [0.0, 0.0, 0.0, 86.0, 0.0, 0.0], [0.0, 0.0, 0.0, 0.0, 86.0, 0.0], [0.0, 0.0, 0.0, 0.0, 0.0, 86.0]], 'homogeneous_poisson': 0.33, 'poisson_ratio': 0.33, 'universal_anisotropy': 0.11, 'elastic_tensor_original': [[287.01085372200237, 160.28718301354823, 160.28718301354823, 0.0, 0.0, 0.0], [159.1180174671195, 285.79605702984946, 159.1180174671195, 0.0, 0.0, 0.0], [159.1294033500217, 159.1294033500217, 285.80876921039, 0.0, 0.0, 0.0], [-0.0001276101579582307, -0.00021288020605050726, -0.0001580601962329907, 85.59407813989723, 0.0, 0.0], [0.0003134169791130632, 0.0003159636198312364, 0.0003444769847746767, 0.0, 85.59383576965575, 0.0], [0.00024377015634087054, 8.712340941502716e-05, 2.4006726388787946e-05, 0.0, 0.0, 85.59401247633446]], 'compliance_tensor': [[5.8, -2.1, -2.1, 0.0, -0.0, 0.0], [-2.1, 5.8, -2.1, 0.0, 0.0, -0.0], [-2.1, -2.1, 5.8, -0.0, 0.0, 0.0], [0.0, 0.0, -0.0, 11.7, -0.0, -0.0], [-0.0, 0.0, 0.0, -0.0, 11.7, -0.0], [0.0, -0.0, 0.0, -0.0, -0.0, 11.7]], 'warnings': [], 'nsites': 4}",0.0
471,mp-865930,TiZnCu2,"{'Ti': 1.0, 'Zn': 1.0, 'Cu': 2.0}",0.186916291406347,7.415148555046202,"{'G_Reuss': 24.0, 'G_VRH': 43.0, 'G_Voigt': 63.0, 'G_Voigt_Reuss_Hill': 43.0, 'K_Reuss': 129.0, 'K_VRH': 129.0, 'K_Voigt': 129.0, 'K_Voigt_Reuss_Hill': 129.0, 'elastic_anisotropy': 8.07, 'elastic_tensor': [[144.0, 121.0, 121.0, 0.0, 0.0, 0.0], [121.0, 144.0, 121.0, 0.0, 0.0, 0.0], [121.0, 121.0, 144.0, 0.0, 0.0, 0.0], [0.0, 0.0, 0.0, 97.0, 0.0, 0.0], [0.0, 0.0, 0.0, 0.0, 97.0, 0.0], [0.0, 0.0, 0.0, 0.0, 0.0, 97.0]], 'homogeneous_poisson': 0.35, 'poisson_ratio': 0.35, 'universal_anisotropy': 8.07, 'elastic_tensor_original': [[138.31774965485653, 125.5522829843566, 125.5522411887735, 4.179558309983988e-05, 4.393500970963153e-05, 0.0], [119.67220939609462, 143.33340467054248, 119.67033938065873, -0.0013312082892261855, -0.0014630952806460892, -0.00010908556374834857], [117.84972858325233, 117.85094039310981, 149.02155553152906, -0.000982720090041913, -0.0013039513594942233, 0.00027295281509418163], [0.003303919389303555, 0.003448628450199032, 0.0035580193031328473, 96.94662418903174, 0.0, 1.6239989485738986e-05], [-0.00038877023117528267, -9.744835669216499e-05, -0.00033483088054866766, 0.0, 96.94660814683893, 1.624000575803457e-05], [0.004720152532564782, 0.004806179399766999, 0.004453791168117314, 1.614000548569761e-05, 1.624333831807916e-05, 96.94700251592761]], 'compliance_tensor': [[30.5, -13.9, -13.9, -0.0, 0.0, 0.0], [-13.9, 30.5, -13.9, 0.0, -0.0, -0.0], [-13.9, -13.9, 30.5, -0.0, -0.0, -0.0], [-0.0, 0.0, -0.0, 10.3, 0.0, 0.0], [0.0, -0.0, -0.0, 0.0, 10.3, 0.0], [0.0, -0.0, -0.0, 0.0, 0.0, 10.3]], 'warnings': [], 'nsites': 4}",0.0
472,mp-866142,TiGaIr2,"{'Ti': 1.0, 'Ga': 1.0, 'Ir': 2.0}",0.13861599630948956,14.131652491087628,"{'G_Reuss': 209.0, 'G_VRH': 93.0, 'G_Voigt': -23.0, 'G_Voigt_Reuss_Hill': 93.0, 'K_Reuss': 223.0, 'K_VRH': 223.0, 'K_Voigt': 223.0, 'K_Voigt_Reuss_Hill': 223.0, 'elastic_anisotropy': -5.55, 'elastic_tensor': [[-27.0, 348.0, 348.0, 0.0, 0.0, 0.0], [348.0, -27.0, 348.0, 0.0, 0.0, 0.0], [348.0, 348.0, -27.0, 0.0, 0.0, 0.0], [0.0, 0.0, 0.0, 87.0, 0.0, 0.0], [0.0, 0.0, 0.0, 0.0, 87.0, 0.0], [0.0, 0.0, 0.0, 0.0, 0.0, 87.0]], 'homogeneous_poisson': 0.32, 'poisson_ratio': 0.32, 'universal_anisotropy': -5.55, 'elastic_tensor_original': [[-25.148081935099505, 346.9765372842126, 346.9773864793165, 0.00022985249731076617, -0.00010057049254281257, -4.1623672750972665e-05], [340.5940864124293, -26.531906934726916, 340.5940864124293, 0.0, 0.0, 0.0], [355.7223544522595, 355.7223544522595, -30.284678653808097, 0.0, 0.0, 0.0], [-0.012747497889949335, -0.06951647333764358, 0.04904883137351797, 86.85063808107613, 0.0, 0.0], [-0.0010932467715742751, 0.004771327124535066, -0.00023427335581491636, 0.0, 86.85007485435541, 0.0], [-0.005737360550567201, -0.005534453864433849, -0.012704494552489126, 0.0, 0.0, 86.84494844386346]], 'compliance_tensor': [[-1.3, 1.4, 1.4, -0.0, -0.0, 0.0], [1.4, -1.3, 1.4, 0.0, -0.0, -0.0], [1.4, 1.4, -1.3, 0.0, 0.0, -0.0], [-0.0, 0.0, 0.0, 11.5, -0.0, 0.0], [-0.0, -0.0, 0.0, -0.0, 11.5, 0.0], [0.0, -0.0, -0.0, 0.0, 0.0, 11.5]], 'warnings': ['Elastic tensor has a negative eigenvalue', 'c11 and c12 are within 5% or c12 is greater than c11', 'c11 and c13 are within 5% or c13 is greater than c11', 'c11 and c23 are within 5% or c23 is greater than c11', 'One or more K, G below 2 GPa'], 'nsites': 4}",0.21153750000113547
473,mp-866154,TiBeIr2,"{'Ti': 1.0, 'Be': 1.0, 'Ir': 2.0}",0.13619200311659224,13.864523376237495,"{'G_Reuss': 121.0, 'G_VRH': 121.0, 'G_Voigt': 121.0, 'G_Voigt_Reuss_Hill': 121.0, 'K_Reuss': 241.0, 'K_VRH': 241.0, 'K_Voigt': 241.0, 'K_Voigt_Reuss_Hill': 241.0, 'elastic_anisotropy': 0.0, 'elastic_tensor': [[402.0, 161.0, 161.0, 0.0, 0.0, 0.0], [161.0, 402.0, 161.0, 0.0, 0.0, 0.0], [161.0, 161.0, 402.0, 0.0, 0.0, 0.0], [0.0, 0.0, 0.0, 122.0, 0.0, 0.0], [0.0, 0.0, 0.0, 0.0, 122.0, 0.0], [0.0, 0.0, 0.0, 0.0, 0.0, 122.0]], 'homogeneous_poisson': 0.28, 'poisson_ratio': 0.28, 'universal_anisotropy': 0.0, 'elastic_tensor_original': [[402.5235350728889, 160.19815839818133, 160.19730202165124, 0.0008409781133317004, 0.0005485284957211678, 0.0005075462512130141], [160.20505460797855, 402.53604569076657, 160.20505460797855, 0.0, 0.0, 0.0], [162.101300911946, 162.101300911946, 401.14601687151173, 0.0, 0.0, 0.0], [6.939328270837965e-05, 0.0002134965109131376, -4.888663100119014e-05, 121.53477002507763, 0.0, 0.0], [-0.00013191657042660557, 0.0002225231709936957, 0.0005300862799458021, 0.0, 121.53436579537251, 0.0], [0.00015168988933738744, -5.584995925517625e-05, 0.0006494895261715734, 0.0, 0.0, 121.5347743050745]], 'compliance_tensor': [[3.2, -0.9, -0.9, 0.0, 0.0, -0.0], [-0.9, 3.2, -0.9, -0.0, 0.0, 0.0], [-0.9, -0.9, 3.2, 0.0, -0.0, 0.0], [0.0, -0.0, 0.0, 8.2, -0.0, -0.0], [0.0, 0.0, -0.0, -0.0, 8.2, -0.0], [-0.0, 0.0, 0.0, -0.0, -0.0, 8.2]], 'warnings': [], 'nsites': 4}",0.0