,mp_id,Formula,Composition,IPF,Density,Elastic_Tensor,E_above_Hull
595,mp-865681,TiSiRu2,"{'Ti': 1.0, 'Si': 1.0, 'Ru': 2.0}",0.10458321203868266,8.522604054233913,"{'G_Reuss': 129.0, 'G_VRH': 130.0, 'G_Voigt': 132.0, 'G_Voigt_Reuss_Hill': 130.0, 'K_Reuss': 243.0, 'K_VRH': 243.0, 'K_Voigt': 243.0, 'K_Voigt_Reuss_Hill': 243.0, 'elastic_anisotropy': 0.11, 'elastic_tensor': [[451.0, 139.0, 139.0, 0.0, 0.0, 0.0], [139.0, 451.0, 139.0, 0.0, 0.0, 0.0], [139.0, 139.0, 451.0, 0.0, 0.0, 0.0], [0.0, 0.0, 0.0, 116.0, 0.0, 0.0], [0.0, 0.0, 0.0, 0.0, 116.0, 0.0], [0.0, 0.0, 0.0, 0.0, 0.0, 116.0]], 'homogeneous_poisson': 0.27, 'poisson_ratio': 0.27, 'universal_anisotropy': 0.11, 'elastic_tensor_original': [[451.0130968900372, 138.8577304997831, 138.8577304997831, 0.0, 0.0, 0.0], [138.85994320846976, 451.0146924959995, 138.85994320846976, 0.0, 0.0, 0.0], [138.85410640366388, 138.85410640366388, 451.01183714387264, 0.0, 0.0, 0.0], [-0.00036600347500902875, -0.0001301566280468416, -0.0001432299323072487, 115.65333073574833, 0.0, 0.0], [0.00018900703586530553, -0.00035599663720806596, -0.00012574266625652432, 0.0, 115.65412620320441, 0.0], [0.00016010676625646903, 0.00022445004261875613, -0.00020516683250333348, 0.0, 0.0, 115.65412894921113]], 'compliance_tensor': [[2.6, -0.6, -0.6, 0.0, 0.0, -0.0], [-0.6, 2.6, -0.6, -0.0, 0.0, 0.0], [-0.6, -0.6, 2.6, 0.0, -0.0, 0.0], [0.0, -0.0, 0.0, 8.6, -0.0, -0.0], [0.0, 0.0, -0.0, -0.0, 8.6, -0.0], [-0.0, 0.0, 0.0, -0.0, -0.0, 8.6]], 'warnings': [], 'nsites': 4}",0.0
596,mp-865717,Ti2ReIr,"{'Ti': 2.0, 'Re': 1.0, 'Ir': 1.0}",0.14213716375062913,13.065347486039514,"{'G_Reuss': 116.0, 'G_VRH': 117.0, 'G_Voigt': 117.0, 'G_Voigt_Reuss_Hill': 117.0, 'K_Reuss': 236.0, 'K_VRH': 236.0, 'K_Voigt': 236.0, 'K_Voigt_Reuss_Hill': 236.0, 'elastic_anisotropy': 0.06, 'elastic_tensor': [[413.0, 147.0, 147.0, 0.0, 0.0, 0.0], [147.0, 413.0, 147.0, 0.0, 0.0, 0.0], [147.0, 147.0, 413.0, 0.0, 0.0, 0.0], [0.0, 0.0, 0.0, 107.0, 0.0, 0.0], [0.0, 0.0, 0.0, 0.0, 107.0, 0.0], [0.0, 0.0, 0.0, 0.0, 0.0, 107.0]], 'homogeneous_poisson': 0.29, 'poisson_ratio': 0.29, 'universal_anisotropy': 0.06, 'elastic_tensor_original': [[413.1146971897637, 147.28914360537857, 147.28914360537857, 0.0, 0.0, 0.0], [147.25483327832217, 413.07342809634065, 147.25483327832217, 0.0, 0.0, 0.0], [147.3072453715592, 147.3072453715592, 413.1290877116014, 0.0, 0.0, 0.0], [0.000371589960584504, 0.00021977331002139453, 0.00021437997725961766, 106.7685437809871, 0.0, 0.0], [0.0007201565902760654, 0.0007215899234581627, 0.0008037765814048966, 0.0, 106.7676796244121, 0.0], [0.00043570995378328315, 0.0004537732851986951, 0.0003706632940179538, 0.0, 0.0, 106.76753854442707]], 'compliance_tensor': [[3.0, -0.8, -0.8, -0.0, 0.0, 0.0], [-0.8, 3.0, -0.8, 0.0, 0.0, -0.0], [-0.8, -0.8, 3.0, -0.0, 0.0, 0.0], [-0.0, 0.0, -0.0, 9.4, 0.0, -0.0], [0.0, 0.0, 0.0, 0.0, 9.4, 0.0], [0.0, -0.0, 0.0, -0.0, 0.0, 9.4]], 'warnings': [], 'nsites': 4}",0.0
597,mp-865888,TiSnRu2,"{'Ti': 1.0, 'Sn': 1.0, 'Ru': 2.0}",0.11820552562449746,9.777327921746597,"{'G_Reuss': 108.0, 'G_VRH': 108.0, 'G_Voigt': 108.0, 'G_Voigt_Reuss_Hill': 108.0, 'K_Reuss': 202.0, 'K_VRH': 202.0, 'K_Voigt': 202.0, 'K_Voigt_Reuss_Hill': 202.0, 'elastic_anisotropy': 0.0, 'elastic_tensor': [[349.0, 129.0, 129.0, 0.0, 0.0, 0.0], [129.0, 349.0, 129.0, 0.0, 0.0, 0.0], [129.0, 129.0, 349.0, 0.0, 0.0, 0.0], [0.0, 0.0, 0.0, 106.0, 0.0, 0.0], [0.0, 0.0, 0.0, 0.0, 106.0, 0.0], [0.0, 0.0, 0.0, 0.0, 0.0, 106.0]], 'homogeneous_poisson': 0.27, 'poisson_ratio': 0.27, 'universal_anisotropy': 0.0, 'elastic_tensor_original': [[348.50968098233494, 129.16685481681063, 129.16685481681063, 0.0, 0.0, 0.0], [129.17700697164585, 348.5199286724586, 129.17700697164585, 0.0, 0.0, 0.0], [129.1730435379249, 129.1730435379249, 348.5198255008409, 0.0, 0.0, 0.0], [2.3030047574269866e-05, 1.0903356163401335e-05, 9.426702394670849e-06, 106.19900913019592, 0.0, 0.0], [-1.895652945369748e-05, -3.636655359010461e-05, -2.779322148838847e-05, 0.0, 106.19900024363248, 0.0], [2.9406757646403704e-05, 3.4390107853375544e-05, 2.7313416764295096e-05, 0.0, 0.0, 106.19910202355636]], 'compliance_tensor': [[3.6, -1.0, -1.0, -0.0, 0.0, -0.0], [-1.0, 3.6, -1.0, 0.0, 0.0, -0.0], [-1.0, -1.0, 3.6, -0.0, -0.0, -0.0], [-0.0, 0.0, -0.0, 9.4, 0.0, 0.0], [0.0, 0.0, -0.0, 0.0, 9.4, 0.0], [-0.0, -0.0, -0.0, 0.0, 0.0, 9.4]], 'warnings': [], 'nsites': 4}",0.0
598,mp-866157,TiGaRh2,"{'Ti': 1.0, 'Ga': 1.0, 'Rh': 2.0}",0.1363223499877667,9.27802116476737,"{'G_Reuss': -135.0, 'G_VRH': -47.0, 'G_Voigt': 41.0, 'G_Voigt_Reuss_Hill': -47.0, 'K_Reuss': 194.0, 'K_VRH': 194.0, 'K_Voigt': 194.0, 'K_Voigt_Reuss_Hill': 194.0, 'elastic_anisotropy': -6.52, 'elastic_tensor': [[157.0, 213.0, 213.0, 0.0, 0.0, 0.0], [213.0, 157.0, 213.0, 0.0, 0.0, 0.0], [213.0, 213.0, 157.0, 0.0, 0.0, 0.0], [0.0, 0.0, 0.0, 87.0, 0.0, 0.0], [0.0, 0.0, 0.0, 0.0, 87.0, 0.0], [0.0, 0.0, 0.0, 0.0, 0.0, 87.0]], 'homogeneous_poisson': 0.63, 'poisson_ratio': 0.63, 'universal_anisotropy': -6.52, 'elastic_tensor_original': [[156.66787970165356, 212.73001647629127, 212.73277622568594, -3.5032023486755725e-05, -8.94353993685227e-05, -1.7156913552739133e-06], [212.71297455196506, 156.64694019839988, 212.71294077678527, 1.2049739285877251e-05, 7.924100073427889e-05, 4.787975875183013e-06], [212.74235775750768, 212.7393686042189, 156.67466313276813, -6.106664230806336e-05, 0.0001926162794787167, -0.00015710545840444263], [-0.00012541328028642683, -0.00016719661032262901, -0.0001567933080275183, 87.23842556561203, 0.0, 0.0], [0.00016876645444177803, 0.00019173977147021328, 0.0001692131380165846, 0.0, 87.23837859893843, 0.0], [-0.00011637994545119348, -0.00010677659028655954, -0.00011067994044548601, 0.0, 0.0, 87.2383879589807]], 'compliance_tensor': [[-11.3, 6.5, 6.5, -0.0, 0.0, -0.0], [6.5, -11.3, 6.5, -0.0, -0.0, 0.0], [6.5, 6.5, -11.3, 0.0, -0.0, -0.0], [-0.0, -0.0, 0.0, 11.5, 0.0, 0.0], [0.0, -0.0, -0.0, 0.0, 11.5, 0.0], [-0.0, 0.0, -0.0, 0.0, 0.0, 11.5]], 'warnings': ['Elastic tensor has a negative eigenvalue', 'c11 and c12 are within 5% or c12 is greater than c11', 'c11 and c13 are within 5% or c13 is greater than c11', 'c11 and c23 are within 5% or c23 is greater than c11', 'One or more K, G below 2 GPa'], 'nsites': 4}",0.0
599,mp-866375,TiFe2Ge,"{'Ti': 1.0, 'Fe': 2.0, 'Ge': 1.0}",0.19972684237916302,7.947002590025136,"{'G_Reuss': 127.0, 'G_VRH': 127.0, 'G_Voigt': 127.0, 'G_Voigt_Reuss_Hill': 127.0, 'K_Reuss': 215.0, 'K_VRH': 215.0, 'K_Voigt': 215.0, 'K_Voigt_Reuss_Hill': 215.0, 'elastic_anisotropy': 0.0, 'elastic_tensor': [[383.0, 130.0, 130.0, 0.0, 0.0, 0.0], [130.0, 383.0, 130.0, 0.0, 0.0, 0.0], [130.0, 130.0, 383.0, 0.0, 0.0, 0.0], [0.0, 0.0, 0.0, 127.0, 0.0, 0.0], [0.0, 0.0, 0.0, 0.0, 127.0, 0.0], [0.0, 0.0, 0.0, 0.0, 0.0, 127.0]], 'homogeneous_poisson': 0.25, 'poisson_ratio': 0.25, 'universal_anisotropy': 0.0, 'elastic_tensor_original': [[382.7084258873391, 130.37435036450884, 130.37435036450884, 0.0, 0.0, 0.0], [130.62307360770288, 382.9439468230845, 130.62307360770288, 0.0, 0.0, 0.0], [130.40510783347793, 130.40510783347793, 382.73900906589665, 0.0, 0.0, 0.0], [0.00048532600320310055, 0.0003341795431624634, 0.00029302626608613197, 127.17526740520566, 0.0, 0.0], [0.0012428149676801037, 0.0012976148927663796, 0.0012293649860657435, 0.0, 127.1756879312975, 0.0], [0.00017756309059707628, 0.00015888311613293575, 0.0002022897234611171, 0.0, 0.0, 127.17532141846516]], 'compliance_tensor': [[3.2, -0.8, -0.8, -0.0, 0.0, 0.0], [-0.8, 3.2, -0.8, 0.0, 0.0, -0.0], [-0.8, -0.8, 3.2, -0.0, 0.0, 0.0], [-0.0, 0.0, -0.0, 7.9, 0.0, -0.0], [0.0, 0.0, 0.0, 0.0, 7.9, 0.0], [0.0, -0.0, 0.0, -0.0, 0.0, 7.9]], 'warnings': [], 'nsites': 4}",0.0
600,mp-867049,Ti13Si31Ni40,"{'Ti': 13.0, 'Si': 31.0, 'Ni': 40.0}",0.12106187134713664,6.329462144054712,,0.0
601,mp-867846,TaTiRe2,"{'Ta': 1.0, 'Ti': 1.0, 'Re': 2.0}",0.12474923118547479,15.710756052787996,"{'G_Reuss': 117.0, 'G_VRH': 117.0, 'G_Voigt': 118.0, 'G_Voigt_Reuss_Hill': 117.0, 'K_Reuss': 263.0, 'K_VRH': 263.0, 'K_Voigt': 263.0, 'K_Voigt_Reuss_Hill': 263.0, 'elastic_anisotropy': 0.03, 'elastic_tensor': [[434.0, 177.0, 177.0, 0.0, 0.0, 0.0], [177.0, 434.0, 177.0, 0.0, 0.0, 0.0], [177.0, 177.0, 434.0, 0.0, 0.0, 0.0], [0.0, 0.0, 0.0, 111.0, 0.0, 0.0], [0.0, 0.0, 0.0, 0.0, 111.0, 0.0], [0.0, 0.0, 0.0, 0.0, 0.0, 111.0]], 'homogeneous_poisson': 0.31, 'poisson_ratio': 0.31, 'universal_anisotropy': 0.03, 'elastic_tensor_original': [[434.86818491540635, 177.0757817056252, 177.0757817056252, 0.0, 0.0, 0.0], [177.81040199056918, 434.1205196386582, 177.81040199056918, 0.0, 0.0, 0.0], [177.35236663609558, 177.35236663609558, 434.5003138547511, 0.0, 0.0, 0.0], [0.010348314784247754, 0.010969670933818124, 0.012304474903565569, 110.55142432130728, 0.0, 0.0], [-0.015405627821877479, -0.009553012280888484, -0.02614149341711523, 0.0, 110.57440867379263, 0.0], [0.033551055165967805, 0.04573755438540872, 0.026198793432610255, 0.0, 0.0, 110.57014677083286]], 'compliance_tensor': [[3.0, -0.9, -0.9, 0.0, -0.0, -0.0], [-0.9, 3.0, -0.9, 0.0, 0.0, -0.0], [-0.9, -0.9, 3.0, 0.0, 0.0, 0.0], [0.0, 0.0, 0.0, 9.0, -0.0, 0.0], [-0.0, 0.0, 0.0, -0.0, 9.0, 0.0], [-0.0, -0.0, 0.0, 0.0, 0.0, 9.0]], 'warnings': [], 'nsites': 4}",0.0
602,mp-972337,Ti2IrW,"{'Ti': 2.0, 'Ir': 1.0, 'W': 1.0}",0.14534137903239383,12.73920881877668,"{'G_Reuss': 90.0, 'G_VRH': 90.0, 'G_Voigt': 90.0, 'G_Voigt_Reuss_Hill': 90.0, 'K_Reuss': 191.0, 'K_VRH': 191.0, 'K_Voigt': 191.0, 'K_Voigt_Reuss_Hill': 191.0, 'elastic_anisotropy': 0.01, 'elastic_tensor': [[317.0, 128.0, 128.0, 0.0, 0.0, 0.0], [128.0, 317.0, 128.0, 0.0, 0.0, 0.0], [128.0, 128.0, 317.0, 0.0, 0.0, 0.0], [0.0, 0.0, 0.0, 87.0, 0.0, 0.0], [0.0, 0.0, 0.0, 0.0, 87.0, 0.0], [0.0, 0.0, 0.0, 0.0, 0.0, 87.0]], 'homogeneous_poisson': 0.3, 'poisson_ratio': 0.3, 'universal_anisotropy': 0.01, 'elastic_tensor_original': [[317.05701826448086, 127.95531963469871, 127.95531963469871, -0.02519005640444446, -0.008151159382599542, 0.008151159382599542], [127.95531963469871, 317.05701826448086, 127.95531963469871, -0.008151159382603369, 0.025190056404442256, -0.00815135937669746], [127.95531963469871, 127.95531963469871, 317.05701826448086, -0.008151359376699661, -0.008151359376699661, 0.02519005640444446], [0.0, 0.0, 0.0, 87.13825843047059, 0.0, 0.0], [0.0, 0.0, 0.0, 0.0, 87.13825843047059, 0.0], [0.0, 0.0, 0.0, 0.0, 0.0, 87.13825843047059]], 'compliance_tensor': [[4.1, -1.2, -1.2, -0.0, 0.0, -0.0], [-1.2, 4.1, -1.2, 0.0, -0.0, 0.0], [-1.2, -1.2, 4.1, 0.0, 0.0, 0.0], [-0.0, 0.0, 0.0, 11.5, 0.0, 0.0], [0.0, -0.0, 0.0, 0.0, 11.5, 0.0], [-0.0, 0.0, 0.0, 0.0, 0.0, 11.5]], 'warnings': [], 'nsites': 4}",0.0
603,mp-972957,ScTiRu2,"{'Sc': 1.0, 'Ti': 1.0, 'Ru': 2.0}",0.12698834517175672,7.862720991735482,"{'G_Reuss': 76.0, 'G_VRH': 79.0, 'G_Voigt': 81.0, 'G_Voigt_Reuss_Hill': 79.0, 'K_Reuss': 238.0, 'K_VRH': 238.0, 'K_Voigt': 238.0, 'K_Voigt_Reuss_Hill': 238.0, 'elastic_anisotropy': 0.35, 'elastic_tensor': [[382.0, 166.0, 166.0, 0.0, 0.0, 0.0], [166.0, 382.0, 166.0, 0.0, 0.0, 0.0], [166.0, 166.0, 382.0, 0.0, 0.0, 0.0], [0.0, 0.0, 0.0, 63.0, 0.0, 0.0], [0.0, 0.0, 0.0, 0.0, 63.0, 0.0], [0.0, 0.0, 0.0, 0.0, 0.0, 63.0]], 'homogeneous_poisson': 0.35, 'poisson_ratio': 0.35, 'universal_anisotropy': 0.35, 'elastic_tensor_original': [[382.35589788249644, 165.95208878370724, 165.95208878370724, 0.0, 0.0, 0.0], [165.95208878370724, 382.35589788249644, 165.95208878370724, 0.0, 0.0, 0.0], [165.95208878370724, 165.95208878370724, 382.35589788249644, 0.0, 0.0, 0.0], [0.0, 0.0, 0.0, 63.498172181320626, -0.007783174269595564, 0.0], [0.0, 0.0, 0.0, 0.007783174269596731, 63.498172181320626, 0.0], [0.0, 0.0, 0.0, 0.0, 0.0077874742553786635, 63.498175281310345]], 'compliance_tensor': [[3.5, -1.1, -1.1, -0.0, 0.0, -0.0], [-1.1, 3.5, -1.1, 0.0, -0.0, 0.0], [-1.1, -1.1, 3.5, 0.0, 0.0, 0.0], [-0.0, 0.0, 0.0, 15.7, -0.0, 0.0], [0.0, -0.0, 0.0, -0.0, 15.7, 0.0], [-0.0, 0.0, 0.0, 0.0, 0.0, 15.7]], 'warnings': [], 'nsites': 4}",0.0
604,mp-975271,RbTi5Se8,"{'Rb': 1.0, 'Ti': 5.0, 'Se': 8.0}",0.2160159513539847,5.123281505048397,,0.0
605,mvc-16026,Ca(TiS2)8,"{'Ca': 1.0, 'Ti': 8.0, 'S': 16.0}",0.13389148481711574,2.867409013396781,,0.0
606,mp-1014257,Ti3ZnN,"{'Ti': 3.0, 'Zn': 1.0, 'N': 1.0}",0.16942715413144652,5.37890951833673,"{'G_Reuss': 91.0, 'G_VRH': 92.0, 'G_Voigt': 93.0, 'G_Voigt_Reuss_Hill': 92.0, 'K_Reuss': 145.0, 'K_VRH': 146.0, 'K_Voigt': 147.0, 'K_Voigt_Reuss_Hill': 146.0, 'elastic_anisotropy': 0.12, 'elastic_tensor': [[294.0, 84.0, 82.0, 0.0, 0.0, 0.0], [84.0, 216.0, 95.0, 0.0, 0.0, 0.0], [82.0, 95.0, 297.0, 0.0, 0.0, 0.0], [0.0, 0.0, 0.0, 101.0, 0.0, 0.0], [0.0, 0.0, 0.0, 0.0, 86.0, 0.0], [0.0, 0.0, 0.0, 0.0, 0.0, 96.0]], 'homogeneous_poisson': 0.24, 'poisson_ratio': 0.24, 'universal_anisotropy': 0.12, 'elastic_tensor_original': [[296.5371486187708, 94.83990559756195, 81.05076804241924, 0.0, 0.0, 0.0], [94.61753045512337, 216.01827242001028, 83.3546445326022, 0.0, 0.0, 0.0], [82.04349737923596, 84.07747404358172, 293.8893509707913, 0.0, 0.0, 0.0], [-5.5280032759126384e-05, -0.0002534068168370964, 1.5973342800041707e-05, 96.01148306032789, 0.0, 0.0], [3.2310057245532723e-05, 4.8713655567243285e-05, -0.00010824632732724642, 0.0, 86.39224054197308, 0.0], [2.3576804551848306e-05, 1.4323348769354922e-05, 2.320329887704003e-05, 0.0, 0.0, 100.51314216610547]], 'compliance_tensor': [[3.9, -1.2, -0.7, -0.0, 0.0, 0.0], [-1.2, 5.8, -1.5, 0.0, 0.0, 0.0], [-0.7, -1.5, 4.0, 0.0, 0.0, 0.0], [-0.0, 0.0, 0.0, 9.9, 0.0, 0.0], [0.0, 0.0, 0.0, 0.0, 11.6, 0.0], [0.0, 0.0, 0.0, 0.0, 0.0, 10.4]], 'warnings': [], 'nsites': 10}",0.0
607,mp-1025502,TiCuF6,"{'Ti': 1.0, 'Cu': 1.0, 'F': 6.0}",0.12769150696460632,3.4876452742630963,,0.0
608,mp-10489,Cs2Ti(CuSe2)2,"{'Cs': 2.0, 'Ti': 1.0, 'Cu': 2.0, 'Se': 4.0}",0.2923159513978181,4.941739669122087,,0.0
609,mp-1070806,BaTi2Sb2O,"{'Ba': 1.0, 'Ti': 2.0, 'Sb': 2.0, 'O': 1.0}",0.22894144216527626,5.815448460175087,,0.0
610,mp-1095148,TiFeAs,"{'Ti': 1.0, 'Fe': 1.0, 'As': 1.0}",0.15330501469863977,7.1197874190502715,,0.0
611,mp-1101870,TiFeP,"{'Ti': 1.0, 'Fe': 1.0, 'P': 1.0}",0.1594002422135095,6.063218975108092,,0.0
612,mp-1105654,TiSiOs,"{'Ti': 1.0, 'Si': 1.0, 'Os': 1.0}",0.10443660428949923,10.203683584934774,,0.0
613,mp-1105715,TiGeS3,"{'Ti': 1.0, 'Ge': 1.0, 'S': 3.0}",0.12190213779018343,3.357855594705072,,0.0
614,mp-1178403,Cs2TiO3,"{'Cs': 2.0, 'Ti': 1.0, 'O': 3.0}",0.630834337775835,4.8947703995020175,,0.0
615,mp-1187464,TiAlIr2,"{'Ti': 1.0, 'Al': 1.0, 'Ir': 2.0}",0.13084342701784207,13.084506335024313,,0.4994475000010823
616,mp-1187470,TiCrTc2,"{'Ti': 1.0, 'Cr': 1.0, 'Tc': 2.0}",0.1687964811023579,8.743542655576215,,0.0
617,mp-1187489,TiTc2Ge,"{'Ti': 1.0, 'Tc': 2.0, 'Ge': 1.0}",0.1355854678653492,9.00007203057584,,0.0
618,mp-1188929,Ti(NbS2)3,"{'Ti': 1.0, 'Nb': 3.0, 'S': 6.0}",0.14548977935980353,4.705835814882684,,0.0
619,mp-1192454,Ti(NbS2)4,"{'Ti': 1.0, 'Nb': 4.0, 'S': 8.0}",0.14383787656414243,4.65822937938305,,0.0
620,mp-1199732,Yb6Ti4Al43,"{'Yb': 6.0, 'Ti': 4.0, 'Al': 43.0}",0.10119070128945654,4.1078887240611355,,0.0
621,mp-1201259,NaTiAsO5,"{'Na': 1.0, 'Ti': 1.0, 'As': 1.0, 'O': 5.0}",0.5175140665260726,3.7150257634580623,,0.0
622,mp-1207686,TmTiClO3,"{'Tm': 1.0, 'Ti': 1.0, 'Cl': 1.0, 'O': 3.0}",0.39481273351299373,5.590238110242337,,0.0
623,mp-1208191,Tm6Ti4Al43,"{'Tm': 6.0, 'Ti': 4.0, 'Al': 43.0}",0.10564812778737415,4.202311655894195,,0.0
624,mp-1208501,Tb6Ti4Al43,"{'Tb': 6.0, 'Ti': 4.0, 'Al': 43.0}",0.09413111289529016,4.025601933645974,,0.0
625,mp-1210257,Na3TiF6,"{'Na': 3.0, 'Ti': 1.0, 'F': 6.0}",0.22758670638208048,2.813161165517915,,0.0
626,mp-1211258,La3TiGa5O14,"{'La': 3.0, 'Ti': 1.0, 'Ga': 5.0, 'O': 14.0}",0.4864384180843809,5.610721257799024,,0.0
627,mp-1215204,ZrTi2O,"{'Zr': 1.0, 'Ti': 2.0, 'O': 1.0}",0.2702431899770548,5.615567128788429,,0.0
628,mp-1215386,Zr3Ti2Si3,"{'Zr': 3.0, 'Ti': 2.0, 'Si': 3.0}",0.10744463392088771,5.343720880407112,,0.0
629,mp-1216676,TiP2W,"{'Ti': 1.0, 'P': 2.0, 'W': 1.0}",0.09895104107420034,8.221307744951378,,0.0
630,mp-1217009,TiAl2Zn,"{'Ti': 1.0, 'Al': 2.0, 'Zn': 1.0}",0.13061788276972705,4.52364524180162,,0.0
631,mp-1217052,Ti6P2O,"{'Ti': 6.0, 'P': 2.0, 'O': 1.0}",0.20210051234420748,4.843844691519425,,0.0
632,mp-1217070,Ti2RePt,"{'Ti': 2.0, 'Re': 1.0, 'Pt': 1.0}",0.14284402156387366,12.748602489822671,,0.0
633,mp-1217074,Ti2HC,"{'Ti': 2.0, 'H': 1.0, 'C': 1.0}",0.13166051551363256,4.496019409847474,,0.0
634,mp-1217138,Ti3V2Si3,"{'Ti': 3.0, 'V': 2.0, 'Si': 3.0}",0.11875813430873694,4.7536671117115095,,0.0
635,mp-1217193,Ti3Fe5P4,"{'Ti': 3.0, 'Fe': 5.0, 'P': 4.0}",0.16505744441058615,6.369320935842189,,0.0
636,mp-1217241,Ti5InS8,"{'Ti': 5.0, 'In': 1.0, 'S': 8.0}",0.14985045638537464,3.87112761326401,,0.8629107142850145
637,mp-1217446,Ti2Tl3P5S18,"{'Ti': 2.0, 'Tl': 3.0, 'P': 5.0, 'S': 18.0}",0.12038791519963761,3.2086956697127285,,0.0
638,mp-1217898,TaTiB4,"{'Ta': 1.0, 'Ti': 1.0, 'B': 4.0}",0.11350703354362847,8.473043839215007,,0.0
639,mp-12193,Nd2Ti2O7,"{'Nd': 2.0, 'Ti': 2.0, 'O': 7.0}",0.5809632042283989,5.891399403118573,,0.0
640,mp-1223278,Li(TiS2)2,"{'Li': 1.0, 'Ti': 2.0, 'S': 4.0}",0.15522395403242625,3.029711072036026,,0.0
641,mp-1223905,K2Ti(TeO4)3,"{'K': 2.0, 'Ti': 1.0, 'Te': 3.0, 'O': 12.0}",0.5963296183369619,4.344510594764143,,0.0
642,mp-1223983,LaTi6(PO4)9,"{'La': 1.0, 'Ti': 6.0, 'P': 9.0, 'O': 36.0}",0.47651762752435134,3.069456108039079,,0.0
643,mp-1224082,K(Ti3Se4)4,"{'K': 1.0, 'Ti': 12.0, 'Se': 16.0}",0.1877759875028889,5.066919157158344,,0.0
644,mp-12245,Rb3TiF7,"{'Rb': 3.0, 'Ti': 1.0, 'F': 7.0}",0.33831784197969256,3.492081820337022,,0.0
645,mp-1224556,Hf3TiTe20,"{'Hf': 3.0, 'Ti': 1.0, 'Te': 20.0}",0.230789183635212,6.273096066554257,,0.0
646,mp-1228124,Ba6Ti5PtO18,"{'Ba': 6.0, 'Ti': 5.0, 'Pt': 1.0, 'O': 18.0}",0.6019175505300814,6.205126904343281,,0.0
647,mp-1245502,Li2TiN2,"{'Li': 2.0, 'Ti': 1.0, 'N': 2.0}",0.24004833569408027,3.3161562961811897,,0.0
648,mp-13182,Li2TiGeO5,"{'Li': 2.0, 'Ti': 1.0, 'Ge': 1.0, 'O': 5.0}",0.5201240512786477,3.526701386074375,,0.0
649,mp-13641,TiCdO3,"{'Ti': 1.0, 'Cd': 1.0, 'O': 3.0}",0.5399836872999884,5.633653361711024,"{'G_Reuss': 43.0, 'G_VRH': 48.0, 'G_Voigt': 53.0, 'G_Voigt_Reuss_Hill': 48.0, 'K_Reuss': 147.0, 'K_VRH': 150.0, 'K_Voigt': 153.0, 'K_Voigt_Reuss_Hill': 150.0, 'elastic_anisotropy': 1.19, 'elastic_tensor': [[266.0, 138.0, 93.0, 11.0, 11.0, 0.0], [138.0, 266.0, 93.0, -11.0, -11.0, 0.0], [93.0, 93.0, 199.0, 0.0, 0.0, 0.0], [11.0, -11.0, 0.0, 34.0, 0.0, -11.0], [11.0, -11.0, 0.0, 0.0, 34.0, 11.0], [0.0, 0.0, 0.0, -11.0, 11.0, 64.0]], 'homogeneous_poisson': 0.35, 'poisson_ratio': 0.35, 'universal_anisotropy': 1.19, 'elastic_tensor_original': [[266.27294088324726, 137.92003710316322, 93.36012422005112, -10.57024148507983, -10.564590560149764, 0.05370927554573497], [137.87164647791354, 266.13648708502905, 93.57942539400202, 10.491623243418763, 11.105659997319911, 0.2932653294557839], [93.38543591430034, 93.3854571328615, 198.57731945994578, 0.0, 0.0, -7.357449522110626e-07], [-10.966910558159107, 10.450585923989037, -0.14228720587417173, 34.10622196970747, -0.06534779504336544, 10.730199122780352], [-10.862385348819501, 10.624628611713682, 0.0745375601099403, 0.03035461784777794, 34.11072713875309, -10.676793772366972], [0.07252043932155035, 0.11384484098962913, 0.15417938808944212, 10.409398147261431, -10.576905691883233, 63.66829129369469]], 'compliance_tensor': [[5.9, -2.8, -1.5, -2.7, -2.7, 0.0], [-2.8, 5.9, -1.5, 2.7, 2.7, 0.0], [-1.5, -1.5, 6.4, -0.0, -0.0, -0.0], [-2.7, 2.7, 0.0, 32.7, 0.0, 5.5], [-2.7, 2.7, -0.0, 0.0, 32.7, -5.4], [0.0, 0.0, -0.0, 5.5, -5.4, 17.5]], 'warnings': [], 'nsites': 10}",0.0