,mp_id,Formula,Composition,IPF,Density,Elastic_Tensor,E_above_Hull
354,mp-865914,TiVTc2,"{'Ti': 1.0, 'V': 1.0, 'Tc': 2.0}",0.13844130021812637,8.4990653539188,"{'G_Reuss': 92.0, 'G_VRH': 94.0, 'G_Voigt': 97.0, 'G_Voigt_Reuss_Hill': 94.0, 'K_Reuss': 233.0, 'K_VRH': 233.0, 'K_Voigt': 233.0, 'K_Voigt_Reuss_Hill': 233.0, 'elastic_anisotropy': 0.3, 'elastic_tensor': [[402.0, 149.0, 149.0, 0.0, 0.0, 0.0], [149.0, 402.0, 149.0, 0.0, 0.0, 0.0], [149.0, 149.0, 402.0, 0.0, 0.0, 0.0], [0.0, 0.0, 0.0, 77.0, 0.0, 0.0], [0.0, 0.0, 0.0, 0.0, 77.0, 0.0], [0.0, 0.0, 0.0, 0.0, 0.0, 77.0]], 'homogeneous_poisson': 0.32, 'poisson_ratio': 0.32, 'universal_anisotropy': 0.3, 'elastic_tensor_original': [[402.57174602457843, 148.59602275624226, 148.59602275624226, 0.0, 0.0, 0.0], [149.2893251521396, 400.559882958851, 149.2893251521396, 0.0, 0.0, 0.0], [148.92425663322396, 148.92425663322396, 402.0784468910848, 0.0, 0.0, 0.0], [0.00015483364887908517, 0.00013652026123660182, 0.00013496694235404938, 77.27860495640178, 0.0, 0.0], [-7.189003735628726e-05, -8.76100569254676e-05, -8.283672465462727e-05, 0.0, 77.27860652641245, 0.0], [-0.00020511374556029993, -0.0001782736733374933, -0.00021964377171036084, 0.0, 0.0, 77.27858849321797]], 'compliance_tensor': [[3.1, -0.8, -0.8, 0.0, -0.0, -0.0], [-0.8, 3.1, -0.8, -0.0, 0.0, -0.0], [-0.8, -0.8, 3.1, -0.0, -0.0, 0.0], [0.0, -0.0, -0.0, 12.9, -0.0, -0.0], [-0.0, 0.0, -0.0, -0.0, 12.9, -0.0], [-0.0, -0.0, 0.0, -0.0, -0.0, 12.9]], 'warnings': [], 'nsites': 4}",0.0
355,mp-865948,Ti2ReRh,"{'Ti': 2.0, 'Re': 1.0, 'Rh': 1.0}",0.139759328373166,10.604352786731432,"{'G_Reuss': 101.0, 'G_VRH': 101.0, 'G_Voigt': 102.0, 'G_Voigt_Reuss_Hill': 101.0, 'K_Reuss': 215.0, 'K_VRH': 215.0, 'K_Voigt': 215.0, 'K_Voigt_Reuss_Hill': 215.0, 'elastic_anisotropy': 0.09, 'elastic_tensor': [[373.0, 135.0, 135.0, 0.0, 0.0, 0.0], [135.0, 373.0, 135.0, 0.0, 0.0, 0.0], [135.0, 135.0, 373.0, 0.0, 0.0, 0.0], [0.0, 0.0, 0.0, 91.0, 0.0, 0.0], [0.0, 0.0, 0.0, 0.0, 91.0, 0.0], [0.0, 0.0, 0.0, 0.0, 0.0, 91.0]], 'homogeneous_poisson': 0.3, 'poisson_ratio': 0.3, 'universal_anisotropy': 0.09, 'elastic_tensor_original': [[374.9474304581168, 131.5605967794301, 131.5704541503689, 0.004453167143837256, 0.0007103661602852682, 3.6556374314159793e-06], [135.26211633559492, 371.22731371382986, 135.26215981717868, 0.0, 0.0, 0.0], [138.9879136371583, 138.987958275884, 373.51366742678044, 0.0, 0.0, 0.0], [-0.0016554661038358602, -0.0012340872640272526, -0.001260578283517765, 91.0869927077656, 0.0, 0.0], [1.317960545165395e-05, -0.0001988909195256537, -3.268164363634209e-05, 0.0, 91.08792793586252, 0.0], [0.00022383648316976615, 0.00017653325209478118, 0.00017087428695341757, 0.0, 0.0, 91.0873593770303]], 'compliance_tensor': [[3.3, -0.9, -0.9, -0.0, -0.0, -0.0], [-0.9, 3.3, -0.9, 0.0, 0.0, -0.0], [-0.9, -0.9, 3.3, 0.0, -0.0, 0.0], [-0.0, 0.0, 0.0, 11.0, -0.0, -0.0], [-0.0, 0.0, -0.0, -0.0, 11.0, 0.0], [-0.0, -0.0, 0.0, -0.0, 0.0, 11.0]], 'warnings': [], 'nsites': 4}",0.0
356,mp-866139,TiBe2Ir,"{'Ti': 1.0, 'Be': 2.0, 'Ir': 1.0}",0.1348893338887807,9.34964352483046,"{'G_Reuss': 49.0, 'G_VRH': 70.0, 'G_Voigt': 91.0, 'G_Voigt_Reuss_Hill': 70.0, 'K_Reuss': 191.0, 'K_VRH': 191.0, 'K_Voigt': 191.0, 'K_Voigt_Reuss_Hill': 191.0, 'elastic_anisotropy': 4.27, 'elastic_tensor': [[224.0, 174.0, 174.0, 0.0, 0.0, 0.0], [174.0, 224.0, 174.0, 0.0, 0.0, 0.0], [174.0, 174.0, 224.0, 0.0, 0.0, 0.0], [0.0, 0.0, 0.0, 135.0, 0.0, 0.0], [0.0, 0.0, 0.0, 0.0, 135.0, 0.0], [0.0, 0.0, 0.0, 0.0, 0.0, 135.0]], 'homogeneous_poisson': 0.34, 'poisson_ratio': 0.34, 'universal_anisotropy': 4.27, 'elastic_tensor_original': [[225.12898558522426, 173.2187796929868, 173.21871875851215, 0.0, 0.0, 7.009507034456222e-05], [173.06286510446503, 223.87659303360724, 173.06280418952198, 0.0, 0.0, 6.983597637185683e-05], [175.17390039840973, 175.17390039840973, 223.6786849128807, 0.0, 0.0, 6.161297931516471e-05], [6.650024805648662e-05, 8.007662646505058e-06, 2.896902964479938e-05, 135.49936996356917, 2.3846668862491298e-05, 0.0], [-0.00017918819352835143, -0.00013351115700872747, -0.00015861619951298481, 2.3040000313200766e-05, 135.49930817627106, 0.0], [-0.0003416768803584374, -0.00034794458688023965, -0.0003550482766980491, 0.0, 0.0, 135.50067578955995]], 'compliance_tensor': [[13.8, -6.0, -6.0, -0.0, -0.0, 0.0], [-6.0, 13.8, -6.0, 0.0, 0.0, -0.0], [-6.0, -6.0, 13.8, -0.0, 0.0, -0.0], [-0.0, 0.0, -0.0, 7.4, 0.0, -0.0], [-0.0, 0.0, 0.0, 0.0, 7.4, 0.0], [0.0, -0.0, -0.0, -0.0, 0.0, 7.4]], 'warnings': [], 'nsites': 4}",0.0
357,mp-866141,TiFe2Si,"{'Ti': 1.0, 'Fe': 2.0, 'Si': 1.0}",0.18300581412782066,6.7581276538375015,"{'G_Reuss': 145.0, 'G_VRH': 146.0, 'G_Voigt': 146.0, 'G_Voigt_Reuss_Hill': 146.0, 'K_Reuss': 229.0, 'K_VRH': 229.0, 'K_Voigt': 229.0, 'K_Voigt_Reuss_Hill': 229.0, 'elastic_anisotropy': 0.01, 'elastic_tensor': [[436.0, 125.0, 125.0, 0.0, 0.0, 0.0], [125.0, 436.0, 125.0, 0.0, 0.0, 0.0], [125.0, 125.0, 436.0, 0.0, 0.0, 0.0], [0.0, 0.0, 0.0, 139.0, 0.0, 0.0], [0.0, 0.0, 0.0, 0.0, 139.0, 0.0], [0.0, 0.0, 0.0, 0.0, 0.0, 139.0]], 'homogeneous_poisson': 0.24, 'poisson_ratio': 0.24, 'universal_anisotropy': 0.01, 'elastic_tensor_original': [[436.84145050485057, 125.49815252105002, 125.50031178394389, 7.39949437037553e-05, -0.00021623920054057795, 0.00021769555828939812], [124.05687247241603, 435.4908478174638, 124.05316619666873, 0.00010316120047899801, -0.00038424670228124496, -0.0003008766896343684], [125.569584862133, 125.5688299220354, 436.92064732648606, 1.587995086648192e-05, -2.8966945550416766e-05, -0.00047647832474253035], [0.00957120639248038, 0.009514872732298838, 0.009523107532419535, 139.34718226957588, 0.0, 0.0], [0.0006594095419283888, 0.0006951263138347804, 0.0006713993668114064, 0.0, 139.3471677730494, 0.0], [-0.012693462799430105, -0.0050543246633695865, 0.004266627709770056, 0.0, 0.0, 139.34926752764952]], 'compliance_tensor': [[2.6, -0.6, -0.6, -0.0, 0.0, 0.0], [-0.6, 2.6, -0.6, 0.0, -0.0, 0.0], [-0.6, -0.6, 2.6, 0.0, 0.0, -0.0], [-0.0, 0.0, 0.0, 7.2, 0.0, 0.0], [0.0, -0.0, 0.0, 0.0, 7.2, 0.0], [0.0, 0.0, -0.0, 0.0, 0.0, 7.2]], 'warnings': [], 'nsites': 4}",0.0
358,mp-866143,TiBeRh2,"{'Ti': 1.0, 'Be': 1.0, 'Rh': 2.0}",0.13256586983593813,8.36609769340187,"{'G_Reuss': 93.0, 'G_VRH': 94.0, 'G_Voigt': 94.0, 'G_Voigt_Reuss_Hill': 94.0, 'K_Reuss': 204.0, 'K_VRH': 204.0, 'K_Voigt': 204.0, 'K_Voigt_Reuss_Hill': 204.0, 'elastic_anisotropy': 0.02, 'elastic_tensor': [[339.0, 136.0, 136.0, 0.0, 0.0, 0.0], [136.0, 339.0, 136.0, 0.0, 0.0, 0.0], [136.0, 136.0, 339.0, 0.0, 0.0, 0.0], [0.0, 0.0, 0.0, 89.0, 0.0, 0.0], [0.0, 0.0, 0.0, 0.0, 89.0, 0.0], [0.0, 0.0, 0.0, 0.0, 0.0, 89.0]], 'homogeneous_poisson': 0.3, 'poisson_ratio': 0.3, 'universal_anisotropy': 0.02, 'elastic_tensor_original': [[337.9636816533278, 135.67982418644766, 135.67938082513376, 8.16428015324185e-05, 0.00012206320622037422, -0.000104479528188957], [136.8402887311966, 340.4938766058061, 136.84098425312592, -0.0006098297780653206, 6.13117918636162e-05, -0.00034184632154174503], [135.6476244699647, 135.64814680745621, 337.9318900715448, 8.601365878538196e-05, 0.0002374297779339145, 5.212949017295877e-05], [-0.0005198303676641365, -0.0005341036417012098, -0.0005463903387378611, 88.82966223938179, 0.0, 0.0], [0.00032037245545082313, 0.00024390292222164293, 0.00028763257629219546, 0.0, 88.82901339578973, 0.0], [-0.0001497636570462441, -0.00013734699427748795, -0.00011497697649219096, 0.0, 0.0, 88.82938642477632]], 'compliance_tensor': [[3.8, -1.1, -1.1, -0.0, -0.0, 0.0], [-1.1, 3.8, -1.1, -0.0, -0.0, -0.0], [-1.1, -1.1, 3.8, 0.0, 0.0, 0.0], [-0.0, -0.0, 0.0, 11.3, 0.0, 0.0], [-0.0, -0.0, 0.0, 0.0, 11.3, 0.0], [0.0, -0.0, 0.0, 0.0, 0.0, 11.3]], 'warnings': [], 'nsites': 4}",0.0
359,mp-866152,TiBeCo2,"{'Ti': 1.0, 'Be': 1.0, 'Co': 2.0}",0.1658484569804471,6.639927873367532,"{'G_Reuss': 102.0, 'G_VRH': 102.0, 'G_Voigt': 102.0, 'G_Voigt_Reuss_Hill': 102.0, 'K_Reuss': 193.0, 'K_VRH': 193.0, 'K_Voigt': 193.0, 'K_Voigt_Reuss_Hill': 193.0, 'elastic_anisotropy': 0.01, 'elastic_tensor': [[320.0, 129.0, 129.0, 0.0, 0.0, 0.0], [129.0, 320.0, 129.0, 0.0, 0.0, 0.0], [129.0, 129.0, 320.0, 0.0, 0.0, 0.0], [0.0, 0.0, 0.0, 106.0, 0.0, 0.0], [0.0, 0.0, 0.0, 0.0, 106.0, 0.0], [0.0, 0.0, 0.0, 0.0, 0.0, 106.0]], 'homogeneous_poisson': 0.28, 'poisson_ratio': 0.28, 'universal_anisotropy': 0.01, 'elastic_tensor_original': [[318.79154861180143, 129.58896770634644, 129.58747856431376, 0.0002868959953430222, 0.0005515481248347498, 0.0003179376592574749], [128.68454391671378, 317.89381518607183, 128.68126313764103, 0.00047825790772983536, -0.0009325605627493217, -0.00036056683610812175], [129.49324863037677, 129.49178625442752, 323.8187407306946, -0.00034470614635242233, -0.00013025412479892088, -7.914214668065508e-05], [0.0010228311027432823, 0.0006738107264542439, 0.00034025703350708334, 106.16564748342483, 0.0, 0.0], [0.0001881135361443442, 0.0004537804892348768, 0.00026048694750475525, 0.0, 106.16503589943214, 0.0], [-0.21937152317711114, 0.22142210005456217, 0.0007107094329034272, 0.0, 0.0, 106.16588201101099]], 'compliance_tensor': [[4.1, -1.2, -1.2, -0.0, -0.0, 0.0], [-1.2, 4.1, -1.2, 0.0, -0.0, -0.0], [-1.2, -1.2, 4.1, -0.0, 0.0, -0.0], [-0.0, 0.0, -0.0, 9.4, -0.0, -0.0], [-0.0, -0.0, 0.0, -0.0, 9.4, -0.0], [0.0, -0.0, -0.0, -0.0, -0.0, 9.4]], 'warnings': [], 'nsites': 4}",0.0
360,mp-866153,TiAlRh2,"{'Ti': 1.0, 'Al': 1.0, 'Rh': 2.0}",0.12756393487056028,8.099626827042165,"{'G_Reuss': -53.0, 'G_VRH': -2.0, 'G_Voigt': 49.0, 'G_Voigt_Reuss_Hill': -2.0, 'K_Reuss': 193.0, 'K_VRH': 193.0, 'K_Voigt': 193.0, 'K_Voigt_Reuss_Hill': 193.0, 'elastic_anisotropy': -9.61, 'elastic_tensor': [[172.0, 204.0, 204.0, 0.0, 0.0, 0.0], [204.0, 172.0, 204.0, 0.0, 0.0, 0.0], [204.0, 204.0, 172.0, 0.0, 0.0, 0.0], [0.0, 0.0, 0.0, 92.0, 0.0, 0.0], [0.0, 0.0, 0.0, 0.0, 92.0, 0.0], [0.0, 0.0, 0.0, 0.0, 0.0, 92.0]], 'homogeneous_poisson': 0.51, 'poisson_ratio': 0.51, 'universal_anisotropy': -9.61, 'elastic_tensor_original': [[172.0310043521649, 204.02606066517592, 204.02606066517592, 0.0, 0.0, 0.0], [203.97911506330763, 171.97455361889703, 203.97911506330763, 0.0, 0.0, 0.0], [203.04707665071734, 203.04707665071734, 172.54641896891252, 0.0, 0.0, 0.0], [4.240161398114446e-06, 0.0007141017775979943, -0.0007447915422151292, 91.88121257770258, 0.0, 0.0], [5.886328821304957e-05, -4.1416623248029586e-05, 5.664331005494971e-05, 0.0, 91.88109527773304, 0.0], [-0.00016166324047681464, -0.00017814322913393564, -0.00022729988636775483, 0.0, 0.0, 91.88127604104648]], 'compliance_tensor': [[-20.6, 11.2, 11.2, 0.0, -0.0, 0.0], [11.2, -20.6, 11.2, 0.0, 0.0, -0.0], [11.2, 11.2, -20.6, -0.0, 0.0, 0.0], [0.0, 0.0, -0.0, 10.9, 0.0, 0.0], [-0.0, 0.0, 0.0, 0.0, 10.9, 0.0], [0.0, -0.0, 0.0, 0.0, 0.0, 10.9]], 'warnings': ['Elastic tensor has a negative eigenvalue', 'c11 and c12 are within 5% or c12 is greater than c11', 'c11 and c13 are within 5% or c13 is greater than c11', 'c11 and c23 are within 5% or c23 is greater than c11', 'One or more K, G below 2 GPa'], 'nsites': 4}",0.0
361,mp-867568,CsTi6O12,"{'Cs': 1.0, 'Ti': 6.0, 'O': 12.0}",0.5818344453210997,4.196789423760888,"{'G_Reuss': 46.0, 'G_VRH': 53.0, 'G_Voigt': 60.0, 'G_Voigt_Reuss_Hill': 53.0, 'K_Reuss': 116.0, 'K_VRH': 119.0, 'K_Voigt': 122.0, 'K_Voigt_Reuss_Hill': 119.0, 'elastic_anisotropy': 1.56, 'elastic_tensor': [[308.0, 69.0, 69.0, 0.0, 0.0, 0.0], [69.0, 157.0, 100.0, 12.0, 0.0, 0.0], [69.0, 100.0, 157.0, -12.0, 0.0, 0.0], [0.0, 12.0, -12.0, 43.0, 0.0, 0.0], [0.0, 0.0, 0.0, 0.0, 66.0, 0.0], [0.0, 0.0, 0.0, 0.0, 0.0, 66.0]], 'homogeneous_poisson': 0.3, 'poisson_ratio': 0.3, 'universal_anisotropy': 1.56, 'elastic_tensor_original': [[156.4782989282727, 99.68180252926845, 68.87769452911179, 0.0, 0.0, -10.144295451047617], [99.54928232800226, 156.86766729492746, 69.00512325912653, 0.0, 0.0, 10.00804117661871], [68.48657122429692, 68.48657122429692, 307.76581239735503, 0.0, 0.0, 1.0411630625518392e-07], [-0.04846818828260535, -0.06573125785406325, -0.02440854433908002, 65.72082502556869, -0.070317729720497, -0.0027653864685025955], [0.008532904118354034, -0.01906032160903541, -0.008128181437290086, 0.08387671175922976, 65.70294494974216, 0.0034883428436870046], [-14.55899322840584, 14.558993228405845, 0.0, 0.0, 0.0, 42.702404594105175]], 'compliance_tensor': [[3.7, -1.0, -1.0, -0.0, -0.0, 0.0], [-1.0, 12.2, -7.8, -5.8, -0.0, 0.0], [-1.0, -7.8, 12.2, 5.8, 0.0, -0.0], [-0.0, -5.8, 5.8, 26.7, 0.0, -0.0], [-0.0, -0.0, 0.0, 0.0, 15.2, 0.0], [0.0, 0.0, -0.0, -0.0, 0.0, 15.2]], 'warnings': [], 'nsites': 38}",0.0
362,mp-9071,Na8TiAs4,"{'Na': 8.0, 'Ti': 1.0, 'As': 4.0}",0.17977589101798067,2.6570999115518394,,0.0
363,mp-978976,Ti6Al16Pt7,"{'Ti': 6.0, 'Al': 16.0, 'Pt': 7.0}",0.11204813142569545,7.540646708451553,"{'G_Reuss': 51.0, 'G_VRH': 57.0, 'G_Voigt': 62.0, 'G_Voigt_Reuss_Hill': 57.0, 'K_Reuss': 137.0, 'K_VRH': 137.0, 'K_Voigt': 137.0, 'K_Voigt_Reuss_Hill': 137.0, 'elastic_anisotropy': 1.05, 'elastic_tensor': [[181.0, 115.0, 115.0, 0.0, 0.0, 0.0], [115.0, 181.0, 115.0, 0.0, 0.0, 0.0], [115.0, 115.0, 181.0, 0.0, 0.0, 0.0], [0.0, 0.0, 0.0, 82.0, 0.0, 0.0], [0.0, 0.0, 0.0, 0.0, 82.0, 0.0], [0.0, 0.0, 0.0, 0.0, 0.0, 82.0]], 'homogeneous_poisson': 0.32, 'poisson_ratio': 0.32, 'universal_anisotropy': 1.05, 'elastic_tensor_original': [[181.14742101904713, 114.93132615270495, 114.9335265481713, 0.0013785017935556431, 0.00041324405165234294, -0.003555601708970638], [115.15366361767752, 180.75307258582345, 115.15238518603046, 0.008588938195277606, -0.001244185351498685, 0.0009147288726193759], [114.71330086308662, 114.7101120584267, 181.54146706583174, 0.001477542170180428, 8.970943708679526e-05, -0.0015179047119501482], [0.09640411903103016, -0.06659053623994356, -0.007133549216210975, 81.63674749401068, 0.0, 0.0], [0.0003717280142271067, 0.00028053458395676454, -0.002712719661328537, 0.0, 81.69401443810627, 0.0], [-0.002525601033875948, -0.0006712261712007695, 0.004736725428748405, 0.0, 0.0, 81.64973835234149]], 'compliance_tensor': [[10.9, -4.2, -4.2, -0.0, 0.0, 0.0], [-4.2, 10.9, -4.2, 0.0, -0.0, 0.0], [-4.2, -4.2, 10.9, 0.0, 0.0, -0.0], [-0.0, 0.0, 0.0, 12.2, 0.0, 0.0], [0.0, -0.0, 0.0, 0.0, 12.2, 0.0], [0.0, 0.0, -0.0, 0.0, 0.0, 12.2]], 'warnings': [], 'nsites': 29}",0.0
364,mvc-11744,Ca(TiS2)4,"{'Ca': 1.0, 'Ti': 4.0, 'S': 8.0}",0.14183940376498438,2.918162915684285,,0.0
365,mvc-14678,MgTiF6,"{'Mg': 1.0, 'Ti': 1.0, 'F': 6.0}",0.12939403781921585,2.8452262938182113,,0.0
366,mp-1025045,TiGaPd,"{'Ti': 1.0, 'Ga': 1.0, 'Pd': 1.0}",0.15020416826269373,8.02198898925839,"{'G_Reuss': 40.0, 'G_VRH': 45.0, 'G_Voigt': 51.0, 'G_Voigt_Reuss_Hill': 45.0, 'K_Reuss': 118.0, 'K_VRH': 121.0, 'K_Voigt': 124.0, 'K_Voigt_Reuss_Hill': 121.0, 'elastic_anisotropy': 1.45, 'elastic_tensor': [[238.0, 99.0, 70.0, 0.0, 0.0, 0.0], [99.0, 238.0, 70.0, 0.0, 0.0, 0.0], [70.0, 70.0, 166.0, 0.0, 0.0, 0.0], [0.0, 0.0, 0.0, 25.0, 0.0, 0.0], [0.0, 0.0, 0.0, 0.0, 25.0, 0.0], [0.0, 0.0, 0.0, 0.0, 0.0, 70.0]], 'homogeneous_poisson': 0.33, 'poisson_ratio': 0.33, 'universal_anisotropy': 1.45, 'elastic_tensor_original': [[239.3673330972215, 94.673829616725, 63.657718071907524, 0.0, 0.0, 1.239972524681485e-05], [105.24434467945136, 234.27868364048302, 54.93685132118905, 0.0, 0.0, -3.0400693224887284e-05], [79.94419610063255, 79.94419490061115, 166.2719860762893, 0.0, 0.0, -1.0400185525802754e-05], [0.0, 0.0, 0.0, 25.41704209283559, -3.3000103988805754e-06, 0.0], [0.0, 0.0, 0.0, 0.0, 23.657366453037113, 0.0], [0.0, 0.0, 0.0, 0.0, 0.0, 70.83176546042456]], 'compliance_tensor': [[5.4, -1.8, -1.5, 0.0, 0.0, 0.0], [-1.8, 5.4, -1.5, 0.0, 0.0, 0.0], [-1.5, -1.5, 7.3, 0.0, 0.0, -0.0], [0.0, 0.0, 0.0, 40.8, 0.0, 0.0], [0.0, 0.0, 0.0, 0.0, 40.8, 0.0], [0.0, 0.0, -0.0, 0.0, 0.0, 14.4]], 'warnings': [], 'nsites': 6}",0.0
367,mp-1025304,Zr(TiGa2)2,"{'Zr': 1.0, 'Ti': 2.0, 'Ga': 4.0}",0.12847751992320747,6.540822885695841,"{'G_Reuss': 66.0, 'G_VRH': 69.0, 'G_Voigt': 72.0, 'G_Voigt_Reuss_Hill': 69.0, 'K_Reuss': 109.0, 'K_VRH': 110.0, 'K_Voigt': 111.0, 'K_Voigt_Reuss_Hill': 110.0, 'elastic_anisotropy': 0.47, 'elastic_tensor': [[170.0, 61.0, 61.0, 0.0, 0.0, 0.0], [61.0, 194.0, 97.0, 0.0, 0.0, 0.0], [61.0, 97.0, 194.0, 0.0, 0.0, 0.0], [0.0, 0.0, 0.0, 117.0, 0.0, 0.0], [0.0, 0.0, 0.0, 0.0, 65.0, 0.0], [0.0, 0.0, 0.0, 0.0, 0.0, 65.0]], 'homogeneous_poisson': 0.24, 'poisson_ratio': 0.24, 'universal_anisotropy': 0.47, 'elastic_tensor_original': [[170.28456252739971, 61.15318256769905, 61.15318256769905, 0.0, 0.0, 0.0], [61.67396175151599, 193.917793226947, 97.32022454688915, 0.0, 0.0, 0.0], [61.67396175151599, 97.32022454688915, 193.917793226947, 0.0, 0.0, 0.0], [0.0, 1.1655057034882654, -1.1655057034882677, 116.5441882791982, 0.0, 0.0], [0.0, 0.0, 0.0, 0.0, 64.97536103413799, 0.0], [0.0, 0.0, 0.0, 0.0, 0.0, 64.97536103413799]], 'compliance_tensor': [[6.9, -1.5, -1.5, -0.0, -0.0, 0.0], [-1.5, 7.2, -3.2, 0.0, 0.0, 0.0], [-1.5, -3.2, 7.2, 0.0, -0.0, -0.0], [-0.0, 0.0, 0.0, 8.6, 0.0, -0.0], [-0.0, 0.0, -0.0, 0.0, 15.4, 0.0], [0.0, 0.0, -0.0, -0.0, 0.0, 15.4]], 'warnings': [], 'nsites': 7}",0.0
368,mp-1025335,Lu(TiGa2)2,"{'Lu': 1.0, 'Ti': 2.0, 'Ga': 4.0}",0.13642583095242092,7.4412713931789645,"{'G_Reuss': 58.0, 'G_VRH': 61.0, 'G_Voigt': 63.0, 'G_Voigt_Reuss_Hill': 61.0, 'K_Reuss': 99.0, 'K_VRH': 99.0, 'K_Voigt': 99.0, 'K_Voigt_Reuss_Hill': 99.0, 'elastic_anisotropy': 0.48, 'elastic_tensor': [[163.0, 58.0, 58.0, 0.0, 0.0, 0.0], [58.0, 166.0, 83.0, 0.0, 0.0, 0.0], [58.0, 83.0, 166.0, 0.0, 0.0, 0.0], [0.0, 0.0, 0.0, 105.0, 0.0, 0.0], [0.0, 0.0, 0.0, 0.0, 57.0, 0.0], [0.0, 0.0, 0.0, 0.0, 0.0, 57.0]], 'homogeneous_poisson': 0.25, 'poisson_ratio': 0.25, 'universal_anisotropy': 0.48, 'elastic_tensor_original': [[162.68531792364033, 56.108212991085956, 56.108212991085956, 0.0, 0.0, 0.0], [60.731881372181334, 166.39196982551545, 83.16263045501726, 0.0, 0.0, 0.0], [60.731881372181356, 83.16263045501726, 166.39196982551545, 0.0, 0.0, 0.0], [0.0, 1.0458526972038542, -1.0458526972038455, 104.58110407757874, 0.0, 0.0], [0.0, 0.0, 0.0, 0.0, 56.709446612776084, 0.0], [0.0, 0.0, 0.0, 0.0, 0.0, 56.7094466127761]], 'compliance_tensor': [[7.4, -1.7, -1.7, -0.0, -0.0, -0.0], [-1.7, 8.4, -3.6, 0.0, 0.0, -0.0], [-1.7, -3.6, 8.4, 0.0, -0.0, 0.0], [-0.0, 0.0, 0.0, 9.6, -0.0, 0.0], [-0.0, 0.0, -0.0, -0.0, 17.6, 0.0], [-0.0, -0.0, 0.0, 0.0, 0.0, 17.6]], 'warnings': ['Contains a rare earth element'], 'nsites': 7}",0.0
369,mp-1025517,Ti2InN,"{'Ti': 2.0, 'In': 1.0, 'N': 1.0}",0.1657685224984901,6.37134824652084,"{'G_Reuss': 84.0, 'G_VRH': 84.0, 'G_Voigt': 85.0, 'G_Voigt_Reuss_Hill': 84.0, 'K_Reuss': 137.0, 'K_VRH': 137.0, 'K_Voigt': 138.0, 'K_Voigt_Reuss_Hill': 137.0, 'elastic_anisotropy': 0.09, 'elastic_tensor': [[240.0, 62.0, 98.0, 0.0, 0.0, 0.0], [62.0, 240.0, 98.0, 0.0, 0.0, 0.0], [98.0, 98.0, 242.0, 0.0, 0.0, 0.0], [0.0, 0.0, 0.0, 91.0, 0.0, 0.0], [0.0, 0.0, 0.0, 0.0, 91.0, 0.0], [0.0, 0.0, 0.0, 0.0, 0.0, 89.0]], 'homogeneous_poisson': 0.24, 'poisson_ratio': 0.24, 'universal_anisotropy': 0.09, 'elastic_tensor_original': [[239.87549072588135, 62.20813973213988, 97.30198307148589, 0.0, 0.0, 0.0], [64.38646754248545, 236.96554547556664, 97.82937967549843, 0.0, 0.0, 0.0], [98.37990140061744, 98.37991015975096, 242.24896802189494, 0.0, 0.0, 0.0], [-0.1005904847098037, 0.028330582835304784, -0.06603879336882246, 90.24233460140753, 0.0, 0.0], [5.4006762825233804e-05, 2.18833722972228e-05, 1.3650024305291659e-05, 0.0, 91.04481420918668, 0.0], [0.00042995746223386595, 0.00011947022106199666, 0.00012744690248447864, 0.0, 0.0, 90.24257129210014]], 'compliance_tensor': [[5.1, -0.6, -1.8, 0.0, -0.0, -0.0], [-0.6, 5.1, -1.8, 0.0, 0.0, -0.0], [-1.8, -1.8, 5.6, -0.0, -0.0, 0.0], [0.0, -0.0, -0.0, 11.0, -0.0, 0.0], [-0.0, 0.0, -0.0, -0.0, 11.0, -0.0], [-0.0, -0.0, 0.0, -0.0, -0.0, 11.2]], 'warnings': [], 'nsites': 8}",0.0
370,mp-1079706,Ti5Al2C3,"{'Ti': 5.0, 'Al': 2.0, 'C': 3.0}",0.11960684363615155,4.125752662571182,,0.0
371,mp-1079893,BaTiSe3,"{'Ba': 1.0, 'Ti': 1.0, 'Se': 3.0}",0.22149866143460556,5.258929935392894,,0.0