,mp_id,Formula,Composition,IPF,Density,Elastic_Tensor,E_above_Hull
709,mp-864930,LiTiIr2,"{'Li': 1.0, 'Ti': 1.0, 'Ir': 2.0}",0.17052932964485687,13.243443555111606,"{'G_Reuss': 79.0, 'G_VRH': 79.0, 'G_Voigt': 79.0, 'G_Voigt_Reuss_Hill': 79.0, 'K_Reuss': 193.0, 'K_VRH': 193.0, 'K_Voigt': 193.0, 'K_Voigt_Reuss_Hill': 193.0, 'elastic_anisotropy': 0.02, 'elastic_tensor': [[290.0, 144.0, 144.0, 0.0, 0.0, 0.0], [144.0, 290.0, 144.0, 0.0, 0.0, 0.0], [144.0, 144.0, 290.0, 0.0, 0.0, 0.0], [0.0, 0.0, 0.0, 83.0, 0.0, 0.0], [0.0, 0.0, 0.0, 0.0, 83.0, 0.0], [0.0, 0.0, 0.0, 0.0, 0.0, 83.0]], 'homogeneous_poisson': 0.32, 'poisson_ratio': 0.32, 'universal_anisotropy': 0.02, 'elastic_tensor_original': [[283.876276833614, 143.59219348102073, 143.59244746836072, 0.00012013570475731772, 7.461977725849614e-05, 6.486694975441453e-05], [143.7093422972357, 296.67583270153204, 143.70919072064225, -4.408848005786461e-06, -6.2442055466568426e-06, 2.214398772137091e-06], [144.49245577259816, 144.49203360046462, 290.2019406859422, 0.00012689901432039668, -2.3879597569802685e-05, -1.4962153865791151e-05], [5.1133320998416106e-06, 5.546665226470609e-06, 2.0766660279421955e-06, 82.93632290695246, 0.0, 0.0], [9.873323040424678e-06, 1.0849994319061788e-05, 1.1236656608994283e-05, 0.0, 82.93632237030072, 0.0], [3.334999638412663e-05, 3.734999648199777e-05, 4.156666305277951e-05, 0.0, 0.0, 82.93632033030109]], 'compliance_tensor': [[5.1, -1.7, -1.7, -0.0, 0.0, 0.0], [-1.7, 5.1, -1.7, 0.0, -0.0, 0.0], [-1.7, -1.7, 5.1, 0.0, 0.0, -0.0], [-0.0, 0.0, 0.0, 12.1, 0.0, -0.0], [0.0, -0.0, 0.0, 0.0, 12.1, -0.0], [0.0, 0.0, -0.0, -0.0, -0.0, 12.1]], 'warnings': [], 'nsites': 4}",0.0
710,mp-865442,TiAlOs2,"{'Ti': 1.0, 'Al': 1.0, 'Os': 2.0}",0.11204517624410053,13.175580632904648,"{'G_Reuss': 100.0, 'G_VRH': 104.0, 'G_Voigt': 109.0, 'G_Voigt_Reuss_Hill': 104.0, 'K_Reuss': 244.0, 'K_VRH': 244.0, 'K_Voigt': 244.0, 'K_Voigt_Reuss_Hill': 244.0, 'elastic_anisotropy': 0.44, 'elastic_tensor': [[341.0, 195.0, 195.0, 0.0, 0.0, 0.0], [195.0, 341.0, 195.0, 0.0, 0.0, 0.0], [195.0, 195.0, 341.0, 0.0, 0.0, 0.0], [0.0, 0.0, 0.0, 132.0, 0.0, 0.0], [0.0, 0.0, 0.0, 0.0, 132.0, 0.0], [0.0, 0.0, 0.0, 0.0, 0.0, 132.0]], 'homogeneous_poisson': 0.31, 'poisson_ratio': 0.31, 'universal_anisotropy': 0.44, 'elastic_tensor_original': [[341.17846503990944, 195.2422812374029, 195.2422812374029, 0.0, 0.0, 0.0], [195.24472142431827, 341.17978158646423, 195.24472142431827, 0.0, 0.0, 0.0], [195.20312176808446, 195.20312176808446, 341.13938177949916, 0.0, 0.0, 0.0], [0.0003985831015560918, 0.0006479165450578116, 8.770047819419136e-05, 132.2775030664682, 0.0, 0.0], [0.00011318686795394747, 0.00023688318828859773, 0.0006927800409560289, 0.0, 132.27796347609453, 0.0], [-0.0006218796404194189, 0.00011884013880748354, 0.0001519866885472883, 0.0, 0.0, 132.27791542247988]], 'compliance_tensor': [[5.0, -1.8, -1.8, 0.0, -0.0, -0.0], [-1.8, 5.0, -1.8, -0.0, 0.0, -0.0], [-1.8, -1.8, 5.0, -0.0, -0.0, 0.0], [0.0, -0.0, -0.0, 7.6, -0.0, -0.0], [-0.0, 0.0, -0.0, -0.0, 7.6, -0.0], [-0.0, -0.0, 0.0, -0.0, -0.0, 7.6]], 'warnings': [], 'nsites': 4}",0.0
711,mp-865448,TiGaRu2,"{'Ti': 1.0, 'Ga': 1.0, 'Ru': 2.0}",0.1200064026761003,9.306973852038315,"{'G_Reuss': 83.0, 'G_VRH': 85.0, 'G_Voigt': 87.0, 'G_Voigt_Reuss_Hill': 85.0, 'K_Reuss': 211.0, 'K_VRH': 211.0, 'K_Voigt': 211.0, 'K_Voigt_Reuss_Hill': 211.0, 'elastic_anisotropy': 0.25, 'elastic_tensor': [[298.0, 168.0, 168.0, 0.0, 0.0, 0.0], [168.0, 298.0, 168.0, 0.0, 0.0, 0.0], [168.0, 168.0, 298.0, 0.0, 0.0, 0.0], [0.0, 0.0, 0.0, 102.0, 0.0, 0.0], [0.0, 0.0, 0.0, 0.0, 102.0, 0.0], [0.0, 0.0, 0.0, 0.0, 0.0, 102.0]], 'homogeneous_poisson': 0.32, 'poisson_ratio': 0.32, 'universal_anisotropy': 0.25, 'elastic_tensor_original': [[297.3499837629537, 168.44578182490986, 168.44578182490986, 0.0, 0.0, 0.0], [168.4698995233032, 297.37385201475075, 168.4698995233032, 0.0, 0.0, 0.0], [166.84468553249192, 166.84468553249192, 299.83496944853215, 0.0, 0.0, 0.0], [-7.58432599676576e-05, -8.580658366348588e-05, -0.00011408655630717579, 102.27646111460129, 0.0, 0.0], [7.679992570769346e-05, 9.626657354289336e-05, 9.798323855067185e-05, 0.0, 102.27641600464491, 0.0], [0.00011910655145019353, 0.00011404988967566474, 0.0001106898929245927, 0.0, 0.0, 102.27647798791831]], 'compliance_tensor': [[5.6, -2.0, -2.0, 0.0, -0.0, -0.0], [-2.0, 5.6, -2.0, -0.0, 0.0, -0.0], [-2.0, -2.0, 5.6, -0.0, -0.0, 0.0], [0.0, -0.0, -0.0, 9.8, -0.0, -0.0], [-0.0, 0.0, -0.0, -0.0, 9.8, -0.0], [-0.0, -0.0, 0.0, -0.0, -0.0, 9.8]], 'warnings': [], 'nsites': 4}",0.0
712,mp-865523,TiMnRh2,"{'Ti': 1.0, 'Mn': 1.0, 'Rh': 2.0}",0.12302834285967139,8.764975268637999,"{'G_Reuss': 68.0, 'G_VRH': 72.0, 'G_Voigt': 76.0, 'G_Voigt_Reuss_Hill': 72.0, 'K_Reuss': 183.0, 'K_VRH': 183.0, 'K_Voigt': 183.0, 'K_Voigt_Reuss_Hill': 183.0, 'elastic_anisotropy': 0.53, 'elastic_tensor': [[248.0, 151.0, 151.0, 0.0, 0.0, 0.0], [151.0, 248.0, 151.0, 0.0, 0.0, 0.0], [151.0, 151.0, 248.0, 0.0, 0.0, 0.0], [0.0, 0.0, 0.0, 93.0, 0.0, 0.0], [0.0, 0.0, 0.0, 0.0, 93.0, 0.0], [0.0, 0.0, 0.0, 0.0, 0.0, 93.0]], 'homogeneous_poisson': 0.33, 'poisson_ratio': 0.33, 'universal_anisotropy': 0.53, 'elastic_tensor_original': [[248.03778746855264, 150.56575188820617, 150.56575188820617, 0.0, 0.0, 0.0], [150.62042987195204, 248.08910953377745, 150.62042987195204, 0.0, 0.0, 0.0], [150.6137234428837, 150.6137234428837, 248.0778580259847, 0.0, 0.0, 0.0], [-0.0003134571578337495, 0.00039385283559204557, -4.428706381289327e-05, 93.410198933877, 0.0, 0.0], [0.00017260578930008267, -0.0001682770351635522, -0.0007329873147128913, 0.0, 93.4101614047675, 0.0], [-0.00042983158269103896, -0.00012658844834246487, -0.0011267476576487126, 0.0, 0.0, 93.40852188876845]], 'compliance_tensor': [[7.4, -2.8, -2.8, -0.0, 0.0, 0.0], [-2.8, 7.4, -2.8, 0.0, -0.0, 0.0], [-2.8, -2.8, 7.4, 0.0, -0.0, -0.0], [-0.0, 0.0, 0.0, 10.7, -0.0, -0.0], [0.0, -0.0, -0.0, -0.0, 10.7, -0.0], [0.0, 0.0, -0.0, -0.0, -0.0, 10.7]], 'warnings': [], 'nsites': 4}",0.0
713,mp-865569,Ti2MnIr,"{'Ti': 2.0, 'Mn': 1.0, 'Ir': 1.0}",0.14493503214062178,10.07359046810324,"{'G_Reuss': 95.0, 'G_VRH': 97.0, 'G_Voigt': 100.0, 'G_Voigt_Reuss_Hill': 97.0, 'K_Reuss': 212.0, 'K_VRH': 212.0, 'K_Voigt': 212.0, 'K_Voigt_Reuss_Hill': 212.0, 'elastic_anisotropy': 0.26, 'elastic_tensor': [[383.0, 127.0, 127.0, 0.0, 0.0, 0.0], [127.0, 383.0, 127.0, 0.0, 0.0, 0.0], [127.0, 127.0, 383.0, 0.0, 0.0, 0.0], [0.0, 0.0, 0.0, 81.0, 0.0, 0.0], [0.0, 0.0, 0.0, 0.0, 81.0, 0.0], [0.0, 0.0, 0.0, 0.0, 0.0, 81.0]], 'homogeneous_poisson': 0.3, 'poisson_ratio': 0.3, 'universal_anisotropy': 0.26, 'elastic_tensor_original': [[382.5956001688677, 126.94999626540786, 126.94999626540786, 0.0, 0.0, 0.0], [126.95277741358092, 382.5986321620771, 126.95277741358092, 0.0, 0.0, 0.0], [126.95699317197607, 126.95699317197607, 382.60234420633867, 0.0, 0.0, 0.0], [-0.0012581186772565442, -0.0012300687067479076, -0.0012450920242862164, 80.73470318828556, 0.0, 0.0], [-0.00017483981617957847, -9.757656407737975e-05, -0.00017410648361712542, 0.0, 80.73482916815311, 0.0], [0.00014511318076582632, 0.00013265986052607998, 0.00019825645822652065, 0.0, 0.0, 80.73506367790657]], 'compliance_tensor': [[3.1, -0.8, -0.8, 0.0, -0.0, -0.0], [-0.8, 3.1, -0.8, -0.0, 0.0, -0.0], [-0.8, -0.8, 3.1, -0.0, -0.0, 0.0], [0.0, -0.0, -0.0, 12.4, -0.0, -0.0], [-0.0, 0.0, -0.0, -0.0, 12.4, -0.0], [-0.0, -0.0, 0.0, -0.0, -0.0, 12.4]], 'warnings': [], 'nsites': 4}",0.0
714,mp-865640,TiGeRu2,"{'Ti': 1.0, 'Ge': 1.0, 'Ru': 2.0}",0.11980397392675307,9.276389202020713,"{'G_Reuss': 116.0, 'G_VRH': 116.0, 'G_Voigt': 117.0, 'G_Voigt_Reuss_Hill': 116.0, 'K_Reuss': 226.0, 'K_VRH': 226.0, 'K_Voigt': 226.0, 'K_Voigt_Reuss_Hill': 226.0, 'elastic_anisotropy': 0.03, 'elastic_tensor': [[397.0, 141.0, 141.0, 0.0, 0.0, 0.0], [141.0, 397.0, 141.0, 0.0, 0.0, 0.0], [141.0, 141.0, 397.0, 0.0, 0.0, 0.0], [0.0, 0.0, 0.0, 109.0, 0.0, 0.0], [0.0, 0.0, 0.0, 0.0, 109.0, 0.0], [0.0, 0.0, 0.0, 0.0, 0.0, 109.0]], 'homogeneous_poisson': 0.28, 'poisson_ratio': 0.28, 'universal_anisotropy': 0.03, 'elastic_tensor_original': [[397.016725501947, 141.10517691340672, 141.10517691340672, 0.0, 0.0, 0.0], [141.09175120423288, 396.97884527955426, 141.09175120423288, 0.0, 0.0, 0.0], [141.09493499094117, 141.09493499094117, 397.0067469750417, 0.0, 0.0, 0.0], [-3.102669661728584e-05, -2.0793353405200875e-05, -2.5060024191379833e-05, 108.97777110254069, 0.0, 0.0], [-7.393340470036422e-06, -7.203340287096359e-06, -8.720008417574629e-06, 0.0, 108.97779078922635, 0.0], [-1.423668040823054e-05, -1.4510014006752865e-05, -1.5410014874912493e-05, 0.0, 0.0, 108.97778224588477]], 'compliance_tensor': [[3.1, -0.8, -0.8, -0.0, 0.0, 0.0], [-0.8, 3.1, -0.8, 0.0, -0.0, 0.0], [-0.8, -0.8, 3.1, 0.0, 0.0, -0.0], [-0.0, 0.0, 0.0, 9.2, -0.0, -0.0], [0.0, -0.0, 0.0, -0.0, 9.2, -0.0], [0.0, 0.0, -0.0, -0.0, -0.0, 9.2]], 'warnings': [], 'nsites': 4}",0.0
715,mp-865650,Ti2TcRu,"{'Ti': 2.0, 'Tc': 1.0, 'Ru': 1.0}",0.13653306408720495,8.257824485201251,"{'G_Reuss': 90.0, 'G_VRH': 94.0, 'G_Voigt': 97.0, 'G_Voigt_Reuss_Hill': 94.0, 'K_Reuss': 206.0, 'K_VRH': 206.0, 'K_Voigt': 206.0, 'K_Voigt_Reuss_Hill': 206.0, 'elastic_anisotropy': 0.38, 'elastic_tensor': [[380.0, 119.0, 119.0, 0.0, 0.0, 0.0], [119.0, 380.0, 119.0, 0.0, 0.0, 0.0], [119.0, 119.0, 380.0, 0.0, 0.0, 0.0], [0.0, 0.0, 0.0, 75.0, 0.0, 0.0], [0.0, 0.0, 0.0, 0.0, 75.0, 0.0], [0.0, 0.0, 0.0, 0.0, 0.0, 75.0]], 'homogeneous_poisson': 0.3, 'poisson_ratio': 0.3, 'universal_anisotropy': 0.38, 'elastic_tensor_original': [[381.92714184306834, 119.77019806043423, 119.77019806043423, 0.0, 0.0, 0.0], [119.6799571728307, 381.83500080396897, 119.6799571728307, 0.0, 0.0, 0.0], [117.23921765623481, 117.24032588737663, 375.83678228091225, 0.00023915368996754195, 0.0003118140665975196, 0.0003089268993142092], [0.00028260008984348864, 0.00026992671417020873, 0.0002580100391410306, 74.74821236793456, 0.0, 0.0], [-5.5832922652242195e-06, -1.733105155836163e-07, 2.2086724125886804e-05, 0.0, 74.74818314121036, 0.0], [5.2973400020457496e-05, 6.385005814471881e-05, 7.686675487304129e-05, 0.0, 0.0, 74.74823940796317]], 'compliance_tensor': [[3.1, -0.7, -0.7, 0.0, -0.0, -0.0], [-0.7, 3.1, -0.7, -0.0, 0.0, -0.0], [-0.7, -0.7, 3.1, -0.0, -0.0, 0.0], [0.0, -0.0, -0.0, 13.4, 0.0, 0.0], [-0.0, 0.0, -0.0, 0.0, 13.4, 0.0], [-0.0, -0.0, 0.0, 0.0, 0.0, 13.4]], 'warnings': [], 'nsites': 4}",0.0
716,mp-865669,TiSiTc2,"{'Ti': 1.0, 'Si': 1.0, 'Tc': 2.0}",0.11886885757210923,8.054004836705937,"{'G_Reuss': 85.0, 'G_VRH': 86.0, 'G_Voigt': 88.0, 'G_Voigt_Reuss_Hill': 86.0, 'K_Reuss': 229.0, 'K_VRH': 229.0, 'K_Voigt': 229.0, 'K_Voigt_Reuss_Hill': 229.0, 'elastic_anisotropy': 0.16, 'elastic_tensor': [[322.0, 183.0, 183.0, 0.0, 0.0, 0.0], [183.0, 322.0, 183.0, 0.0, 0.0, 0.0], [183.0, 183.0, 322.0, 0.0, 0.0, 0.0], [0.0, 0.0, 0.0, 100.0, 0.0, 0.0], [0.0, 0.0, 0.0, 0.0, 100.0, 0.0], [0.0, 0.0, 0.0, 0.0, 0.0, 100.0]], 'homogeneous_poisson': 0.33, 'poisson_ratio': 0.33, 'universal_anisotropy': 0.16, 'elastic_tensor_original': [[322.25458651598603, 183.00311294176998, 183.00311294176998, 0.0, 0.0, 0.0], [183.00198446077388, 322.25200718821463, 183.00198446077388, 0.0, 0.0, 0.0], [183.00137960033712, 183.00137960033712, 322.25273707947974, 0.0, 0.0, 0.0], [0.00016258344268110545, 0.000123830323492041, 0.0001343500623970057, 99.9534826946925, 0.0, 0.0], [0.0002576830358710023, -0.0001722366043716694, -3.384350263441783e-05, 0.0, 99.95348074753575, 0.0], [0.00018710016444505945, -0.00013130311982590298, -0.00012194314064104327, 0.0, 0.0, 99.95342831041445]], 'compliance_tensor': [[5.3, -1.9, -1.9, 0.0, 0.0, -0.0], [-1.9, 5.3, -1.9, -0.0, 0.0, 0.0], [-1.9, -1.9, 5.3, 0.0, -0.0, 0.0], [0.0, -0.0, 0.0, 10.0, -0.0, -0.0], [0.0, 0.0, -0.0, -0.0, 10.0, -0.0], [-0.0, 0.0, 0.0, -0.0, -0.0, 10.0]], 'warnings': [], 'nsites': 4}",0.0
717,mp-865707,TiSnRh2,"{'Ti': 1.0, 'Sn': 1.0, 'Rh': 2.0}",0.13103693732673757,9.592849021588956,"{'G_Reuss': 139.0, 'G_VRH': 70.0, 'G_Voigt': 1.0, 'G_Voigt_Reuss_Hill': 70.0, 'K_Reuss': 180.0, 'K_VRH': 180.0, 'K_Voigt': 180.0, 'K_Voigt_Reuss_Hill': 180.0, 'elastic_anisotropy': -4.97, 'elastic_tensor': [[93.0, 223.0, 223.0, 0.0, 0.0, 0.0], [223.0, 93.0, 223.0, 0.0, 0.0, 0.0], [223.0, 223.0, 93.0, 0.0, 0.0, 0.0], [0.0, 0.0, 0.0, 45.0, 0.0, 0.0], [0.0, 0.0, 0.0, 0.0, 45.0, 0.0], [0.0, 0.0, 0.0, 0.0, 0.0, 45.0]], 'homogeneous_poisson': 0.33, 'poisson_ratio': 0.33, 'universal_anisotropy': -4.97, 'elastic_tensor_original': [[93.32951288871418, 223.24929427624667, 223.24929427624667, 0.0, 0.0, 0.0], [223.21469676885692, 93.2961007631395, 223.21469676885692, 0.0, 0.0, 0.0], [223.23282170131654, 223.23282170131654, 93.31123637474951, 0.0, 0.0, 0.0], [0.02639327556833637, 0.03970033063697236, 0.03594083410874688, 44.9239711489288, 0.0, 0.0], [-0.03370028067148256, -0.016758838073888505, -0.049616899337777715, 0.0, 44.92130295485376, 0.0], [0.03341842183879974, 0.029315265863407262, 0.018202254604009066, 0.0, 0.0, 44.92619939103262]], 'compliance_tensor': [[-4.5, 3.2, 3.2, 0.0, -0.0, -0.0], [3.2, -4.5, 3.2, -0.0, 0.0, 0.0], [3.2, 3.2, -4.5, 0.0, -0.0, 0.0], [0.0, -0.0, 0.0, 22.3, 0.0, 0.0], [-0.0, 0.0, -0.0, 0.0, 22.3, -0.0], [-0.0, 0.0, 0.0, 0.0, -0.0, 22.3]], 'warnings': ['Elastic tensor has a negative eigenvalue', 'c11 and c12 are within 5% or c12 is greater than c11', 'c11 and c13 are within 5% or c13 is greater than c11', 'c11 and c23 are within 5% or c23 is greater than c11', 'One or more K, G below 2 GPa'], 'nsites': 4}",0.0
718,mp-865712,Ti2MnNi,"{'Ti': 2.0, 'Mn': 1.0, 'Ni': 1.0}",0.1516399195123115,6.57826859307671,"{'G_Reuss': 66.0, 'G_VRH': 66.0, 'G_Voigt': 66.0, 'G_Voigt_Reuss_Hill': 66.0, 'K_Reuss': 177.0, 'K_VRH': 177.0, 'K_Voigt': 177.0, 'K_Voigt_Reuss_Hill': 177.0, 'elastic_anisotropy': 0.0, 'elastic_tensor': [[266.0, 132.0, 132.0, 0.0, 0.0, 0.0], [132.0, 266.0, 132.0, 0.0, 0.0, 0.0], [132.0, 132.0, 266.0, 0.0, 0.0, 0.0], [0.0, 0.0, 0.0, 66.0, 0.0, 0.0], [0.0, 0.0, 0.0, 0.0, 66.0, 0.0], [0.0, 0.0, 0.0, 0.0, 0.0, 66.0]], 'homogeneous_poisson': 0.33, 'poisson_ratio': 0.33, 'universal_anisotropy': 0.0, 'elastic_tensor_original': [[266.70570572903273, 132.50425367527504, 132.50407633778386, 0.0, 6.679647312616287e-05, -6.679647312616287e-05], [129.30746206736285, 260.5926121740689, 129.3075053630945, 0.0, 4.3215732461637274e-05, -6.525327014871608e-05], [134.0881259663548, 134.0826784451387, 270.21260837519327, 0.00015437161672076928, -0.0009679006122455331, 0.0009418797919453452], [0.015915255595632352, 0.014341790862868199, 0.015068394999556449, 66.00299832244228, -1.1033328430081609e-05, 1.1059995108129386e-05], [0.005641254430425801, 0.011421579578994279, 0.009181984486291709, -1.103999869009871e-05, 65.99928912308248, -6.665632450811869e-09], [-0.004422409772116609, -0.0020727024586042375, -0.0006366755217604404, 1.103999829277918e-05, 0.0, 66.00016646348261]], 'compliance_tensor': [[5.6, -1.9, -1.9, 0.0, -0.0, -0.0], [-1.9, 5.6, -1.9, -0.0, 0.0, -0.0], [-1.9, -1.9, 5.6, -0.0, -0.0, 0.0], [0.0, -0.0, -0.0, 15.2, -0.0, -0.0], [-0.0, 0.0, -0.0, -0.0, 15.2, -0.0], [-0.0, -0.0, 0.0, -0.0, -0.0, 15.2]], 'warnings': [], 'nsites': 4}",0.0
719,mp-865876,Ti2TcOs,"{'Ti': 2.0, 'Tc': 1.0, 'Os': 1.0}",0.13683394985179628,10.690396169558037,"{'G_Reuss': 99.0, 'G_VRH': 100.0, 'G_Voigt': 101.0, 'G_Voigt_Reuss_Hill': 100.0, 'K_Reuss': 227.0, 'K_VRH': 227.0, 'K_Voigt': 227.0, 'K_Voigt_Reuss_Hill': 227.0, 'elastic_anisotropy': 0.09, 'elastic_tensor': [[383.0, 149.0, 149.0, 0.0, 0.0, 0.0], [149.0, 383.0, 149.0, 0.0, 0.0, 0.0], [149.0, 149.0, 383.0, 0.0, 0.0, 0.0], [0.0, 0.0, 0.0, 89.0, 0.0, 0.0], [0.0, 0.0, 0.0, 0.0, 89.0, 0.0], [0.0, 0.0, 0.0, 0.0, 0.0, 89.0]], 'homogeneous_poisson': 0.31, 'poisson_ratio': 0.31, 'universal_anisotropy': 0.09, 'elastic_tensor_original': [[383.1721165168653, 149.1419806273921, 149.1419806273921, 0.0, 0.0, 0.0], [149.1274459092213, 383.14687795427426, 149.1274459092213, 0.0, 0.0, 0.0], [149.1453273521751, 149.1453273521751, 383.17589453270773, 0.0, 0.0, 0.0], [0.0009301543991237642, 0.0009879177986446468, 0.000961857768784717, 89.49773524851913, 0.0, 0.0], [-0.0007899475718067171, -0.0007117241488430403, -0.000747250856216836, 0.0, 89.49766698510761, 0.0], [0.0009069077058220446, 0.0008916610216852788, 0.0008493309731806509, 0.0, 0.0, 89.49768435846087]], 'compliance_tensor': [[3.3, -0.9, -0.9, -0.0, -0.0, 0.0], [-0.9, 3.3, -0.9, 0.0, 0.0, -0.0], [-0.9, -0.9, 3.3, -0.0, 0.0, 0.0], [-0.0, 0.0, -0.0, 11.2, -0.0, -0.0], [-0.0, 0.0, 0.0, -0.0, 11.2, -0.0], [0.0, -0.0, 0.0, -0.0, -0.0, 11.2]], 'warnings': [], 'nsites': 4}",0.0
720,mp-865927,AcTiO3,"{'Ac': 1.0, 'Ti': 1.0, 'O': 3.0}",0.5579068914411596,8.284647565044244,"{'G_Reuss': 69.0, 'G_VRH': 71.0, 'G_Voigt': 74.0, 'G_Voigt_Reuss_Hill': 71.0, 'K_Reuss': 165.0, 'K_VRH': 165.0, 'K_Voigt': 165.0, 'K_Voigt_Reuss_Hill': 165.0, 'elastic_anisotropy': 0.38, 'elastic_tensor': [[297.0, 99.0, 99.0, 0.0, 0.0, 0.0], [99.0, 297.0, 99.0, 0.0, 0.0, 0.0], [99.0, 99.0, 297.0, 0.0, 0.0, 0.0], [0.0, 0.0, 0.0, 57.0, 0.0, 0.0], [0.0, 0.0, 0.0, 0.0, 57.0, 0.0], [0.0, 0.0, 0.0, 0.0, 0.0, 57.0]], 'homogeneous_poisson': 0.31, 'poisson_ratio': 0.31, 'universal_anisotropy': 0.38, 'elastic_tensor_original': [[297.4408830642381, 99.33135908334947, 99.33135908334947, 0.0, 0.0, 0.0], [99.33135908334947, 297.4408830642381, 99.33135908334947, 0.0, 0.0, 0.0], [99.33135908334947, 99.33135908334947, 297.4408830642381, 0.0, 0.0, 0.0], [0.0, 0.0, 0.0, 56.91794571085559, 0.0, 0.0], [0.0, 0.0, 0.0, 0.0, 56.91794571085559, 0.0], [0.0, 0.0, 0.0, 0.0, 0.0, 56.91794571085559]], 'compliance_tensor': [[4.0, -1.0, -1.0, 0.0, 0.0, 0.0], [-1.0, 4.0, -1.0, 0.0, 0.0, 0.0], [-1.0, -1.0, 4.0, 0.0, 0.0, 0.0], [0.0, 0.0, 0.0, 17.6, 0.0, 0.0], [0.0, 0.0, 0.0, 0.0, 17.6, 0.0], [0.0, 0.0, 0.0, 0.0, 0.0, 17.6]], 'warnings': ['Contains a rare earth element'], 'nsites': 5}",0.0
721,mp-865931,Ti2TcPd,"{'Ti': 2.0, 'Tc': 1.0, 'Pd': 1.0}",0.1533395310145402,8.11100510528375,"{'G_Reuss': 63.0, 'G_VRH': 64.0, 'G_Voigt': 64.0, 'G_Voigt_Reuss_Hill': 64.0, 'K_Reuss': 179.0, 'K_VRH': 179.0, 'K_Voigt': 179.0, 'K_Voigt_Reuss_Hill': 179.0, 'elastic_anisotropy': 0.06, 'elastic_tensor': [[254.0, 142.0, 142.0, 0.0, 0.0, 0.0], [142.0, 254.0, 142.0, 0.0, 0.0, 0.0], [142.0, 142.0, 254.0, 0.0, 0.0, 0.0], [0.0, 0.0, 0.0, 70.0, 0.0, 0.0], [0.0, 0.0, 0.0, 0.0, 70.0, 0.0], [0.0, 0.0, 0.0, 0.0, 0.0, 70.0]], 'homogeneous_poisson': 0.34, 'poisson_ratio': 0.34, 'universal_anisotropy': 0.06, 'elastic_tensor_original': [[253.25848170993717, 141.7866892760529, 141.7866892760529, 0.0, 0.0, 0.0], [141.78032633869944, 253.25038640264498, 141.78032633869944, 0.0, 0.0, 0.0], [142.3566250029163, 142.3566250029163, 254.2133519674032, 0.0, 0.0, 0.0], [0.00040790327492555486, 0.00036406656465142693, 0.00033585659849127975, 69.76129841330632, 0.0, 0.0], [7.760000736047143e-05, 0.0002324096033718512, 0.00010224994217332378, 0.0, 69.76159497592936, 0.0], [-4.5240261208535596e-05, -8.997684638272952e-05, -0.0003778129532448477, 0.0, 0.0, 69.76171287202985]], 'compliance_tensor': [[6.6, -2.4, -2.4, 0.0, -0.0, 0.0], [-2.4, 6.6, -2.4, 0.0, 0.0, -0.0], [-2.4, -2.4, 6.6, -0.0, 0.0, 0.0], [0.0, 0.0, -0.0, 14.3, -0.0, -0.0], [-0.0, 0.0, 0.0, -0.0, 14.3, -0.0], [0.0, -0.0, 0.0, -0.0, -0.0, 14.3]], 'warnings': [], 'nsites': 4}",0.0