,mp_id,Formula,Composition,IPF,Density,Elastic_Tensor,E_above_Hull
115,mp-739,TiP,"{'Ti': 1.0, 'P': 1.0}",0.10586282105644254,4.219611373656351,"{'G_Reuss': 87.0, 'G_VRH': 91.0, 'G_Voigt': 96.0, 'G_Voigt_Reuss_Hill': 91.0, 'K_Reuss': 138.0, 'K_VRH': 139.0, 'K_Voigt': 139.0, 'K_Voigt_Reuss_Hill': 139.0, 'elastic_anisotropy': 0.55, 'elastic_tensor': [[222.0, 82.0, 97.0, 0.0, 0.0, 0.0], [82.0, 222.0, 97.0, 0.0, 0.0, 0.0], [97.0, 97.0, 253.0, 0.0, 0.0, 0.0], [0.0, 0.0, 0.0, 135.0, 0.0, 0.0], [0.0, 0.0, 0.0, 0.0, 135.0, 0.0], [0.0, 0.0, 0.0, 0.0, 0.0, 70.0]], 'homogeneous_poisson': 0.23, 'poisson_ratio': 0.23, 'universal_anisotropy': 0.55, 'elastic_tensor_original': [[222.23765898065528, 83.04924612600563, 97.62353062190003, 0.0, 0.0, 0.0], [82.28041868210641, 221.66494840707327, 97.1661840641995, 0.0, 0.0, 0.0], [97.54433102413466, 97.54430814421923, 252.71508140308703, 0.0, 0.0, 0.0], [-0.00013397676713183013, -0.0002228401671032431, -0.00010517674553533735, 134.98901158598528, 0.0, 0.0], [-6.629634828087172e-05, -3.4359459721666836e-05, 0.0001342229053929667, 0.0, 134.95500607738276, 0.0], [-6.90800196852108e-05, 6.235001752119128e-05, -0.00011061335089944074, 0.0, 0.0, 70.51843350494617]], 'compliance_tensor': [[5.746620527095504, -1.3879962584403258, -1.6810765654968243, -6.518196938770834e-23, 2.1316093848298452e-23, 2.497232336551904e-06], [-1.3879962584403247, 5.746623410652838, -1.681076987264716, -1.9211954527273947e-23, 3.524108224519012e-23, 2.497232963579429e-06], [-1.6810765654968243, -1.6810769872647155, 5.25377320524004, 3.875431196448475e-24, -3.836869970290897e-23, -7.305230498990533e-07], [-3.0294864444793463e-23, -2.023503678400586e-23, -9.185576391409448e-24, 7.408944522152033, 1.6098027640077894e-06, 3.781166026001525e-23], [1.428486220879418e-23, 5.655962087631634e-23, -4.3879166531977404e-23, 1.6098027640077892e-06, 7.408942663310981, 6.775918057168106e-23], [2.497232338882482e-06, 2.4972329630165182e-06, -7.305230505808243e-07, 7.56233185244368e-23, 9.074419029181851e-23, 14.269236454629716]], 'warnings': [], 'nsites': 8}",0.0
116,mp-7498,Ti5Te4,"{'Ti': 5.0, 'Te': 4.0}",0.2522885639723213,6.385807170916716,"{'G_Reuss': 32.0, 'G_VRH': 36.0, 'G_Voigt': 39.0, 'G_Voigt_Reuss_Hill': 36.0, 'K_Reuss': 66.0, 'K_VRH': 66.0, 'K_Voigt': 66.0, 'K_Voigt_Reuss_Hill': 66.0, 'elastic_anisotropy': 1.07, 'elastic_tensor': [[109.0, 38.0, 38.0, 0.0, 0.0, 0.0], [38.0, 101.0, 68.0, 4.0, 0.0, 0.0], [38.0, 68.0, 101.0, -4.0, 0.0, 0.0], [0.0, 4.0, -4.0, 39.0, 0.0, 0.0], [0.0, 0.0, 0.0, 0.0, 51.0, 0.0], [0.0, 0.0, 0.0, 0.0, 0.0, 51.0]], 'homogeneous_poisson': 0.27, 'poisson_ratio': 0.27, 'universal_anisotropy': 1.07, 'elastic_tensor_original': [[100.46249610718623, 68.38504733235052, 38.68674286866535, 0.0, 0.0, 5.327714598936431], [67.82302356600823, 101.26382230500495, 38.585368533642566, 0.0, 0.0, -5.094054351433225], [37.225887965361885, 37.225887965361885, 108.73751376224918, 0.0, 0.0, -1.1940064717049933e-07], [-0.10628665594337024, 0.12787166787869336, 0.04791830169631484, 50.997944014687626, -0.2188466134179816, 0.18135434426654296], [-0.12177033972276236, 0.109849793479758, -0.047318424883225865, 0.21965367028164168, 50.997681197956815, 0.17743933331093312], [3.3831477985795027, -3.390400116286371, 0.05925076183169255, 0.0, 0.0, 38.729280444955336]], 'compliance_tensor': [[10.9, -2.4, -2.4, -0.0, -0.0, 0.0], [-2.4, 19.2, -12.2, -3.5, -0.0, 0.0], [-2.4, -12.2, 19.2, 3.5, 0.0, 0.0], [-0.0, -3.5, 3.5, 26.6, 0.0, 0.0], [-0.0, -0.0, 0.0, 0.0, 19.6, 0.0], [0.0, 0.0, 0.0, 0.0, 0.0, 19.6]], 'warnings': [], 'nsites': 9}",0.0
117,mp-7857,TiB,"{'Ti': 1.0, 'B': 1.0}",0.13507786185601123,4.575880541341557,"{'G_Reuss': 188.0, 'G_VRH': 190.0, 'G_Voigt': 191.0, 'G_Voigt_Reuss_Hill': 190.0, 'K_Reuss': 207.0, 'K_VRH': 207.0, 'K_Voigt': 208.0, 'K_Voigt_Reuss_Hill': 207.0, 'elastic_anisotropy': 0.09, 'elastic_tensor': [[418.0, 109.0, 60.0, 0.0, 0.0, 0.0], [109.0, 418.0, 88.0, 0.0, 0.0, 0.0], [60.0, 88.0, 519.0, 0.0, 0.0, 0.0], [0.0, 0.0, 0.0, 220.0, 0.0, 0.0], [0.0, 0.0, 0.0, 0.0, 195.0, 0.0], [0.0, 0.0, 0.0, 0.0, 0.0, 176.0]], 'homogeneous_poisson': 0.15, 'poisson_ratio': 0.15, 'universal_anisotropy': 0.09, 'elastic_tensor_original': [[519.223697440097, 59.89904419010319, 87.76107958095847, 0.0, 0.0, 0.0], [59.34901370025996, 417.89106373015846, 108.49966402197283, 0.0, 0.0, 0.0], [88.59057951070929, 108.79330500886125, 418.39736543331423, 0.0, 0.0, 0.0], [-0.00010039338304771854, -0.00019002676076868214, -0.00010834005364944157, 176.4480079528184, 0.0, 0.0], [-4.4236383566436894e-05, 0.0002674201426021303, -3.130969760514818e-05, 0.0, 219.64292888380325, 0.0], [0.0001036034405771557, -0.00015952681088112261, -0.0002483399270156121, 0.0, 0.0, 194.79838479744748]], 'compliance_tensor': [[2.6, -0.6, -0.2, 0.0, 0.0, 0.0], [-0.6, 2.6, -0.4, -0.0, 0.0, 0.0], [-0.2, -0.4, 2.0, -0.0, 0.0, 0.0], [0.0, -0.0, -0.0, 4.6, 0.0, 0.0], [0.0, 0.0, 0.0, 0.0, 5.1, 0.0], [0.0, 0.0, 0.0, 0.0, 0.0, 5.7]], 'warnings': [], 'nsites': 8}",0.0
118,mp-823,TiCo,"{'Ti': 1.0, 'Co': 1.0}",0.16990253225767665,6.714495214283375,"{'G_Reuss': 61.0, 'G_VRH': 61.0, 'G_Voigt': 61.0, 'G_Voigt_Reuss_Hill': 61.0, 'K_Reuss': 163.0, 'K_VRH': 163.0, 'K_Voigt': 163.0, 'K_Voigt_Reuss_Hill': 163.0, 'elastic_anisotropy': 0.0, 'elastic_tensor': [[244.0, 123.0, 123.0, 0.0, 0.0, 0.0], [123.0, 244.0, 123.0, 0.0, 0.0, 0.0], [123.0, 123.0, 244.0, 0.0, 0.0, 0.0], [0.0, 0.0, 0.0, 62.0, 0.0, 0.0], [0.0, 0.0, 0.0, 0.0, 62.0, 0.0], [0.0, 0.0, 0.0, 0.0, 0.0, 62.0]], 'homogeneous_poisson': 0.33, 'poisson_ratio': 0.33, 'universal_anisotropy': 0.0, 'elastic_tensor_original': [[244.26806777341676, 122.63077938981372, 122.63077938981372, 0.0, 0.0, 0.0], [122.63018896399784, 244.26566125195595, 122.63018896399784, 0.0, 0.0, 0.0], [122.6106119096737, 122.6106119096737, 244.24723849157775, 0.0, 0.0, 0.0], [6.274377480550376e-05, 4.12269206168699e-05, 9.545371879406414e-05, 61.81666674501566, 0.0, 0.0], [-9.713997247356047e-05, -6.4870192554270824e-06, -5.7183401555016944e-05, 0.0, 61.81663254122964, 0.0], [-5.3503266744288136e-05, 3.775373646437344e-05, 4.0047035859721176e-05, 0.0, 0.0, 61.81657803155502]], 'compliance_tensor': [[6.2, -2.1, -2.1, -0.0, 0.0, 0.0], [-2.1, 6.2, -2.1, 0.0, -0.0, 0.0], [-2.1, -2.1, 6.2, 0.0, 0.0, -0.0], [-0.0, 0.0, 0.0, 16.2, -0.0, -0.0], [0.0, -0.0, 0.0, -0.0, 16.2, 0.0], [0.0, 0.0, -0.0, -0.0, 0.0, 16.2]], 'warnings': [], 'nsites': 2}",0.0
119,mp-8282,Ti2N,"{'Ti': 2.0, 'N': 1.0}",0.16669107259881275,4.881545213711141,"{'G_Reuss': 108.0, 'G_VRH': 117.0, 'G_Voigt': 127.0, 'G_Voigt_Reuss_Hill': 117.0, 'K_Reuss': 204.0, 'K_VRH': 204.0, 'K_Voigt': 204.0, 'K_Voigt_Reuss_Hill': 204.0, 'elastic_anisotropy': 0.9, 'elastic_tensor': [[429.0, 105.0, 105.0, 0.0, 0.0, 0.0], [105.0, 300.0, 194.0, 0.0, 0.0, 0.0], [105.0, 194.0, 300.0, 0.0, 0.0, 0.0], [0.0, 0.0, 0.0, 151.0, 0.0, 0.0], [0.0, 0.0, 0.0, 0.0, 138.0, 0.0], [0.0, 0.0, 0.0, 0.0, 0.0, 138.0]], 'homogeneous_poisson': 0.26, 'poisson_ratio': 0.26, 'universal_anisotropy': 0.9, 'elastic_tensor_original': [[300.310994922797, 194.02369141872924, 105.01563340757784, 0.0, 0.0, 0.0], [194.03228877298358, 300.29821581836154, 105.0156857298526, 0.0, 0.0, 0.0], [105.29763188459944, 105.29763188459944, 428.9241108199504, 0.0, 0.0, 0.0], [-3.902679109325963e-05, -7.31334470523647e-05, -7.897999968705733e-05, 137.85855085297734, 0.0, 0.0], [2.060001085678647e-05, 8.394331012280419e-05, 6.7616697779731e-05, 0.0, 137.85853494306073, 0.0], [1.833455372089748e-07, 1.809674064820365e-05, 1.1293396405202361e-05, 0.0, 0.0, 150.82397079119863]], 'compliance_tensor': [[2.6, -0.6, -0.6, 0.0, 0.0, 0.0], [-0.6, 5.8, -3.6, -0.0, -0.0, -0.0], [-0.6, -3.6, 5.8, 0.0, 0.0, 0.0], [0.0, -0.0, 0.0, 6.6, 0.0, 0.0], [0.0, -0.0, 0.0, 0.0, 7.3, 0.0], [0.0, -0.0, 0.0, 0.0, 0.0, 7.3]], 'warnings': [], 'nsites': 6}",0.0
120,mp-866046,Ti3In,"{'Ti': 3.0, 'In': 1.0}",0.15425685591817223,5.888116238832343,"{'G_Reuss': 43.0, 'G_VRH': 45.0, 'G_Voigt': 46.0, 'G_Voigt_Reuss_Hill': 45.0, 'K_Reuss': 108.0, 'K_VRH': 108.0, 'K_Voigt': 109.0, 'K_Voigt_Reuss_Hill': 108.0, 'elastic_anisotropy': 0.32, 'elastic_tensor': [[171.0, 82.0, 65.0, 0.0, 0.0, 0.0], [82.0, 171.0, 65.0, 0.0, 0.0, 0.0], [65.0, 65.0, 212.0, 0.0, 0.0, 0.0], [0.0, 0.0, 0.0, 35.0, 0.0, 0.0], [0.0, 0.0, 0.0, 0.0, 35.0, 0.0], [0.0, 0.0, 0.0, 0.0, 0.0, 45.0]], 'homogeneous_poisson': 0.32, 'poisson_ratio': 0.32, 'universal_anisotropy': 0.32, 'elastic_tensor_original': [[171.65928873383345, 81.50481964006018, 64.63947951367118, 0.0, 0.0, 0.0], [82.376030763121, 170.7785181475375, 64.99657513279445, 0.0, 0.0, 0.0], [64.42601289716583, 64.42600661764665, 212.11623133630204, 0.0, 0.0, 0.0], [-0.00020960006302623318, 0.00023582008895475144, -0.00040015300747691345, 35.38126244291839, 0.0, 0.0], [-0.004119885927235574, -0.015145923799116726, -0.007820022488128148, 0.0, 35.12425432566311, 0.0], [0.0009044326538479709, 0.00018011306119076518, 0.000384769686756354, 0.0, 0.0, 44.78892712332562]], 'compliance_tensor': [[7.9, -3.3, -1.4, 0.0, 0.0, -0.0], [-3.3, 7.9, -1.4, 0.0, -0.0, -0.0], [-1.4, -1.4, 5.6, -0.0, -0.0, 0.0], [0.0, 0.0, -0.0, 28.4, -0.0, -0.0], [0.0, -0.0, -0.0, -0.0, 28.4, -0.0], [-0.0, -0.0, 0.0, -0.0, -0.0, 22.4]], 'warnings': [], 'nsites': 8}",0.0
121,mp-866184,Ti3Pb,"{'Ti': 3.0, 'Pb': 1.0}",0.1832132310174751,7.797411885162248,"{'G_Reuss': 34.0, 'G_VRH': 18.0, 'G_Voigt': 1.0, 'G_Voigt_Reuss_Hill': 18.0, 'K_Reuss': 107.0, 'K_VRH': 107.0, 'K_Voigt': 107.0, 'K_Voigt_Reuss_Hill': 107.0, 'elastic_anisotropy': -4.9, 'elastic_tensor': [[83.0, 159.0, 71.0, 0.0, 0.0, 0.0], [159.0, 83.0, 71.0, 0.0, 0.0, 0.0], [71.0, 71.0, 194.0, 0.0, 0.0, 0.0], [0.0, 0.0, 0.0, 11.0, 0.0, 0.0], [0.0, 0.0, 0.0, 0.0, 11.0, 0.0], [0.0, 0.0, 0.0, 0.0, 0.0, -38.0]], 'homogeneous_poisson': 0.42, 'poisson_ratio': 0.42, 'universal_anisotropy': -4.9, 'elastic_tensor_original': [[39.18874061701705, 200.784146727011, 69.87228113150263, 0.0, 0.0, 0.0], [198.47675364503405, 44.421802673509866, 73.65183501509279, 0.0, 0.0, 0.0], [71.07146964125728, 71.07145408191796, 193.9868783250457, 0.0, 0.0, 0.0], [0.000682347360062997, 0.0010779210953745432, 0.00021795355481614255, 10.960861918337356, 0.0, 0.0], [0.014002246966205119, 0.006607117370782445, 0.010985357877483597, 0.0, 11.264570571312102, 0.0], [-0.010863175676565017, -0.008285399075421022, 0.010332303043199053, 0.0, 0.0, 2.740339386773973]], 'compliance_tensor': [[-3.9, 9.2, -1.9, 0.0, -0.0, -0.0], [9.2, -3.9, -1.9, 0.0, -0.0, -0.0], [-1.9, -1.9, 6.6, -0.0, 0.0, -0.0], [0.0, 0.0, -0.0, 90.0, 0.0, -0.0], [-0.0, -0.0, 0.0, 0.0, 90.0, -0.0], [-0.0, -0.0, -0.0, -0.0, -0.0, -26.3]], 'warnings': ['Elastic tensor has a negative eigenvalue', 'c11 and c12 are within 5% or c12 is greater than c11', 'One or more K, G below 2 GPa'], 'nsites': 8}",0.0
122,mp-979115,Ti2Ag,"{'Ti': 2.0, 'Ag': 1.0}",0.20186430554106263,6.468902592045046,"{'G_Reuss': 35.0, 'G_VRH': 41.0, 'G_Voigt': 47.0, 'G_Voigt_Reuss_Hill': 41.0, 'K_Reuss': 104.0, 'K_VRH': 105.0, 'K_Voigt': 105.0, 'K_Voigt_Reuss_Hill': 105.0, 'elastic_anisotropy': 1.74, 'elastic_tensor': [[171.0, 43.0, 95.0, 0.0, 0.0, 0.0], [43.0, 171.0, 95.0, 0.0, 0.0, 0.0], [95.0, 95.0, 135.0, 0.0, 0.0, 0.0], [0.0, 0.0, 0.0, 64.0, 0.0, 0.0], [0.0, 0.0, 0.0, 0.0, 64.0, 0.0], [0.0, 0.0, 0.0, 0.0, 0.0, 28.0]], 'homogeneous_poisson': 0.33, 'poisson_ratio': 0.33, 'universal_anisotropy': 1.74, 'elastic_tensor_original': [[171.02378357621578, 42.620135191725794, 100.59992797990407, 0.0, 0.0, 0.0], [42.62013519172578, 171.02378357621578, 100.59992797990407, 0.0, 0.0, 0.0], [90.04870556650113, 90.04870556650113, 134.85649455827138, 0.0, 0.0, 0.0], [0.0, 0.0, 0.0, 64.15835430781365, 0.0, 0.0], [0.0, 0.0, 0.0, 0.0, 64.15835430781368, 0.0], [0.2772061247965861, -0.2772061247965938, 0.0, 0.0, 0.0, 27.719563267642478]], 'compliance_tensor': [[10.2, 2.4, -9.0, 0.0, -0.0, 0.0], [2.4, 10.2, -9.0, 0.0, -0.0, 0.0], [-9.0, -9.0, 20.1, -0.0, 0.0, -0.0], [0.0, 0.0, -0.0, 15.6, 0.0, 0.0], [-0.0, -0.0, 0.0, 0.0, 15.6, -0.0], [0.0, 0.0, -0.0, 0.0, -0.0, 36.1]], 'warnings': [], 'nsites': 3}",0.0
123,mp-1014227,Ti2ZnN,"{'Ti': 2.0, 'Zn': 1.0, 'N': 1.0}",0.17633674378026387,5.650048112061304,"{'G_Reuss': 99.0, 'G_VRH': 100.0, 'G_Voigt': 101.0, 'G_Voigt_Reuss_Hill': 100.0, 'K_Reuss': 148.0, 'K_VRH': 149.0, 'K_Voigt': 151.0, 'K_Voigt_Reuss_Hill': 149.0, 'elastic_anisotropy': 0.15, 'elastic_tensor': [[352.0, 72.0, 75.0, 0.0, 0.0, 0.0], [72.0, 252.0, 71.0, 0.0, 0.0, 0.0], [75.0, 71.0, 316.0, 0.0, 0.0, 0.0], [0.0, 0.0, 0.0, 90.0, 0.0, 0.0], [0.0, 0.0, 0.0, 0.0, 99.0, 0.0], [0.0, 0.0, 0.0, 0.0, 0.0, 83.0]], 'homogeneous_poisson': 0.23, 'poisson_ratio': 0.23, 'universal_anisotropy': 0.15, 'elastic_tensor_original': [[315.5124391289814, 71.75559639488682, 75.20333368908712, 0.0, 0.0, 0.0], [70.3848833012299, 252.33219858921257, 71.24512505147342, 0.0, 0.0, 0.0], [74.7341857581738, 73.03515067657904, 352.26133725353696, 0.0, 0.0, 0.0], [0.0, 0.0, 0.0, 83.41303237033611, 0.0, 0.0], [0.0015758291327990681, -0.005923144452373219, -0.0005817025038406193, 0.0, 98.81659295768112, 0.0], [3.1716796345324846e-05, 3.85668243518942e-05, -4.050016558304791e-06, 0.0, 0.0, 89.73731293593437]], 'compliance_tensor': [[3.1, -0.7, -0.6, -0.0, 0.0, 0.0], [-0.7, 4.4, -0.8, 0.0, 0.0, 0.0], [-0.6, -0.8, 3.5, -0.0, 0.0, 0.0], [-0.0, 0.0, -0.0, 11.1, 0.0, 0.0], [0.0, 0.0, 0.0, 0.0, 10.1, 0.0], [0.0, 0.0, 0.0, 0.0, 0.0, 12.0]], 'warnings': [], 'nsites': 8}",0.0
124,mp-1016108,TiZnN2,"{'Ti': 1.0, 'Zn': 1.0, 'N': 2.0}",0.15311443277526152,4.766285536725132,"{'G_Reuss': 55.0, 'G_VRH': 55.0, 'G_Voigt': 55.0, 'G_Voigt_Reuss_Hill': 55.0, 'K_Reuss': 154.0, 'K_VRH': 154.0, 'K_Voigt': 155.0, 'K_Voigt_Reuss_Hill': 154.0, 'elastic_anisotropy': 0.02, 'elastic_tensor': [[238.0, 125.0, 113.0, 0.0, 0.0, 0.0], [125.0, 230.0, 118.0, 0.0, 0.0, 0.0], [113.0, 118.0, 213.0, 0.0, 0.0, 0.0], [0.0, 0.0, 0.0, 57.0, 0.0, 0.0], [0.0, 0.0, 0.0, 0.0, 53.0, 0.0], [0.0, 0.0, 0.0, 0.0, 0.0, 59.0]], 'homogeneous_poisson': 0.34, 'poisson_ratio': 0.34, 'universal_anisotropy': 0.02, 'elastic_tensor_original': [[213.38759314007936, 113.00843197496486, 118.28436048607112, 0.0, 0.0, 0.0], [113.006245326339, 237.73952058457866, 125.29709011085534, 0.0, 0.0, 0.0], [117.47749016501824, 124.43304686028804, 229.91924437686177, 0.0, 0.0, 0.0], [0.0010726468186122492, -0.07137368991428596, 0.045733524775746937, 58.57234953825122, 0.0, 0.0], [-0.00011324987124583039, 9.991321974196839e-05, 3.107996466519092e-05, 0.0, 56.869319515356, 0.0], [-1.3069984561436488e-05, 0.00016461313888511294, 0.00014890315744214546, 0.0, 0.0, 52.720699410396435]], 'compliance_tensor': [[6.5, -2.5, -2.1, 0.0, 0.0, 0.0], [-2.5, 7.0, -2.6, 0.0, 0.0, 0.0], [-2.1, -2.6, 7.2, 0.0, 0.0, 0.0], [0.0, 0.0, 0.0, 17.6, 0.0, 0.0], [0.0, 0.0, 0.0, 0.0, 19.0, 0.0], [0.0, 0.0, 0.0, 0.0, 0.0, 17.1]], 'warnings': [], 'nsites': 16}",0.0
125,mp-10402,TiTl2F6,"{'Ti': 1.0, 'Tl': 2.0, 'F': 6.0}",0.19956502809367532,6.057885867720305,"{'G_Reuss': 6.0, 'G_VRH': 7.0, 'G_Voigt': 8.0, 'G_Voigt_Reuss_Hill': 7.0, 'K_Reuss': 24.0, 'K_VRH': 25.0, 'K_Voigt': 26.0, 'K_Voigt_Reuss_Hill': 25.0, 'elastic_anisotropy': 1.39, 'elastic_tensor': [[44.0, 27.0, 16.0, -3.0, 0.0, 0.0], [27.0, 44.0, 16.0, 3.0, 0.0, 0.0], [16.0, 16.0, 31.0, 0.0, 0.0, 0.0], [-3.0, 3.0, 0.0, 6.0, 0.0, 0.0], [0.0, 0.0, 0.0, 0.0, 6.0, -3.0], [0.0, 0.0, 0.0, 0.0, -3.0, 9.0]], 'homogeneous_poisson': 0.37, 'poisson_ratio': 0.37, 'universal_anisotropy': 1.39, 'elastic_tensor_original': [[44.1966337136395, 26.272258366754482, 17.353331703526713, 3.2653783909944862, 0.0, 0.0], [26.288848665280142, 44.65387589066274, 18.25419919060112, -2.1229106239156517, 0.0, 0.0], [13.493354952272833, 13.49335101117472, 31.00769330884869, 0.0, 0.0, 0.0], [3.3123594918380372, -3.023639101069291, 0.4119786569433846, 5.94367596491736, 0.0, 0.0], [-2.5129414797447983e-05, 0.0033393080184948363, 0.006473552595852985, -0.000696379890150067, 6.0868664155342165, 2.967419356047394], [0.008882180725165884, 0.10292755427281113, 0.02190762956820355, 0.005015834719952428, 2.9717739890476325, 8.01375916086431]], 'compliance_tensor': [[44.3, -26.1, -9.2, 34.6, -0.0, -0.0], [-26.1, 44.3, -9.2, -34.6, -0.0, -0.0], [-9.2, -9.2, 41.5, 0.0, 0.0, 0.0], [34.6, -34.6, -0.0, 200.1, -0.0, -0.0], [-0.0, -0.0, 0.0, -0.0, 200.1, 69.1], [-0.0, -0.0, 0.0, -0.0, 69.1, 140.9]], 'warnings': [], 'nsites': 9}",0.0
126,mp-1076973,TiGeSb,"{'Ti': 1.0, 'Ge': 1.0, 'Sb': 1.0}",0.12025938529205797,7.016602119447159,,0.0
127,mp-1095145,TiReSi,"{'Ti': 1.0, 'Re': 1.0, 'Si': 1.0}",0.1091359108686323,9.97622583617216,,0.0
128,mp-1095505,Ti3GeC2,"{'Ti': 3.0, 'Ge': 1.0, 'C': 2.0}",0.13324996769605907,5.3691901240739766,,0.0
129,mp-1101099,Ti2S3,"{'Ti': 2.0, 'S': 3.0}",0.1571341572701228,3.6451079480872837,,0.0
130,mp-1102042,TiCuGe,"{'Ti': 1.0, 'Cu': 1.0, 'Ge': 1.0}",0.15486754609279116,6.9508502021879774,,0.0
131,mp-1104366,Ti4NiS8,"{'Ti': 4.0, 'Ni': 1.0, 'S': 8.0}",0.15205630974924525,3.667417068418489,,0.0
132,mp-1105097,Ti4CoS8,"{'Ti': 4.0, 'Co': 1.0, 'S': 8.0}",0.15587389503322202,3.7395606259483354,,0.0
133,mp-1105911,TiPd3,"{'Ti': 1.0, 'Pd': 3.0}",0.16801401180157124,10.038598419553349,,0.0
134,mp-11113,TiTeAs,"{'Ti': 1.0, 'Te': 1.0, 'As': 1.0}",0.20928136125875543,6.769605729748634,"{'G_Reuss': 65.0, 'G_VRH': 67.0, 'G_Voigt': 69.0, 'G_Voigt_Reuss_Hill': 67.0, 'K_Reuss': 83.0, 'K_VRH': 83.0, 'K_Voigt': 83.0, 'K_Voigt_Reuss_Hill': 83.0, 'elastic_anisotropy': 0.33, 'elastic_tensor': [[205.0, 32.0, 21.0, 0.0, 0.0, 0.0], [32.0, 159.0, 63.0, 0.0, 0.0, 0.0], [21.0, 63.0, 153.0, 0.0, 0.0, 0.0], [0.0, 0.0, 0.0, 90.0, 0.0, 0.0], [0.0, 0.0, 0.0, 0.0, 57.0, 0.0], [0.0, 0.0, 0.0, 0.0, 0.0, 66.0]], 'homogeneous_poisson': 0.18, 'poisson_ratio': 0.18, 'universal_anisotropy': 0.33, 'elastic_tensor_original': [[153.0197664681816, 20.45397038109037, 63.57134624175225, 0.0, 0.0, 0.0], [22.007258213347725, 204.63860024267183, 32.07654899041055, 0.0, 0.0, 0.0], [63.08396835203819, 31.63171740342729, 159.24173708835465, 0.0, 0.0, 0.0], [-4.595332956087845e-05, -5.667999534680546e-05, -2.388666470612117e-05, 66.46941347479948, 0.0, 0.0], [-6.579998922527735e-06, -9.31990981052659e-06, 1.2319963039608437e-05, 0.0, 89.52612157929822, 0.0], [3.1716725045859274e-05, -5.940999652339857e-05, 2.8056722283675578e-05, 0.0, 0.0, 57.29720268706247]], 'compliance_tensor': [[5.1, -0.9, -0.3, 0.0, 0.0, 0.0], [-0.9, 7.7, -3.1, 0.0, 0.0, 0.0], [-0.3, -3.1, 7.8, 0.0, -0.0, 0.0], [0.0, 0.0, 0.0, 11.2, 0.0, 0.0], [0.0, 0.0, -0.0, 0.0, 17.5, 0.0], [0.0, 0.0, 0.0, 0.0, 0.0, 15.0]], 'warnings': [], 'nsites': 6}",0.0
135,mp-1114503,Rb3TiF6,"{'Rb': 3.0, 'Ti': 1.0, 'F': 6.0}",0.3406753294115142,3.435310651478866,,0.0