,mp_id,Formula,Composition,IPF,Density,Elastic_Tensor,E_above_Hull
205,mp-568069,Ti2Bi,"{'Ti': 2.0, 'Bi': 1.0}",0.15521201753073569,7.998026445353696,"{'G_Reuss': 18.0, 'G_VRH': 22.0, 'G_Voigt': 26.0, 'G_Voigt_Reuss_Hill': 22.0, 'K_Reuss': 65.0, 'K_VRH': 72.0, 'K_Voigt': 80.0, 'K_Voigt_Reuss_Hill': 72.0, 'elastic_anisotropy': 2.38, 'elastic_tensor': [[79.0, 53.0, 75.0, 0.0, 0.0, 0.0], [53.0, 79.0, 75.0, 0.0, 0.0, 0.0], [75.0, 75.0, 155.0, 0.0, 0.0, 0.0], [0.0, 0.0, 0.0, 16.0, 0.0, 0.0], [0.0, 0.0, 0.0, 0.0, 16.0, 0.0], [0.0, 0.0, 0.0, 0.0, 0.0, 64.0]], 'homogeneous_poisson': 0.36, 'poisson_ratio': 0.36, 'universal_anisotropy': 2.38, 'elastic_tensor_original': [[79.06706901051716, 53.00144195212044, 74.98439137919289, 0.0, 0.0, 0.0], [52.995282893904516, 79.05950104086102, 74.98037949762315, 0.0, 0.0, 0.0], [74.13041142727218, 74.13041142727218, 154.7571653146493, 0.0, 0.0, 0.0], [7.040010101922364e-05, 5.389341066664302e-05, -0.0003728538683535311, 15.704968798893931, 0.0, 0.0], [0.00015408688777077443, 0.00015448355500597734, -0.000245480352248088, 0.0, 15.70531571272506, 0.0], [-0.003060017922518452, -0.003007944511088956, 0.0009233347180813745, 0.0, 0.0, 63.62527790041093]], 'compliance_tensor': [[27.5, -10.9, -8.0, 0.0, -0.0, 0.0], [-10.9, 27.5, -8.0, 0.0, -0.0, 0.0], [-8.0, -8.0, 14.2, -0.0, 0.0, 0.0], [0.0, 0.0, -0.0, 63.7, -0.0, 0.0], [-0.0, -0.0, 0.0, -0.0, 63.7, 0.0], [0.0, 0.0, 0.0, 0.0, 0.0, 15.7]], 'warnings': [], 'nsites': 6}",0.0
206,mp-569484,Cs3Ti2Cl9,"{'Cs': 3.0, 'Ti': 2.0, 'Cl': 9.0}",0.21960112433143134,3.0401275593382264,"{'G_Reuss': 5.0, 'G_VRH': 5.0, 'G_Voigt': 5.0, 'G_Voigt_Reuss_Hill': 5.0, 'K_Reuss': 8.0, 'K_VRH': 8.0, 'K_Voigt': 8.0, 'K_Voigt_Reuss_Hill': 8.0, 'elastic_anisotropy': 0.13, 'elastic_tensor': [[15.0, 6.0, 4.0, 0.0, 0.0, 0.0], [6.0, 15.0, 4.0, 0.0, 0.0, 0.0], [4.0, 4.0, 17.0, 0.0, 0.0, 0.0], [0.0, 0.0, 0.0, 4.0, 0.0, 0.0], [0.0, 0.0, 0.0, 0.0, 4.0, 0.0], [0.0, 0.0, 0.0, 0.0, 0.0, 4.0]], 'homogeneous_poisson': 0.26, 'poisson_ratio': 0.26, 'universal_anisotropy': 0.13, 'elastic_tensor_original': [[15.10414020924789, 6.0059543737018535, 3.8511109875903125, 0.0, 0.0, 0.0], [6.067113331811359, 14.900383478894062, 3.9366700181250875, 0.0, 0.0, 0.0], [4.5597547575155755, 4.559755557607809, 17.42123640616774, 0.0, 0.0, 0.0], [-0.03565702707726012, -0.023281864646179127, -0.020790629754246382, 4.314056187824984, 0.0, 0.0], [-0.03870931025950607, -0.02005798864949774, -0.021885139133765164, 0.0, 4.324244202763295, 0.0], [-0.06773524627270093, -0.07892403174341077, -0.06778371294862615, 0.0, 0.0, 4.41861607741537]], 'compliance_tensor': [[82.5, -29.8, -12.8, 0.0, 0.0, 0.0], [-29.8, 82.5, -12.8, -0.0, -0.0, 0.0], [-12.8, -12.8, 63.6, 0.0, 0.0, -0.0], [0.0, -0.0, 0.0, 231.5, 0.0, -0.0], [0.0, -0.0, 0.0, 0.0, 231.5, -0.0], [0.0, 0.0, -0.0, -0.0, -0.0, 224.7]], 'warnings': [], 'nsites': 28}",0.0
207,mp-569743,Ti4MnBi2,"{'Ti': 4.0, 'Mn': 1.0, 'Bi': 2.0}",0.15020684319692182,7.974342334198054,,0.0
208,mp-569807,RbTiBr3,"{'Rb': 1.0, 'Ti': 1.0, 'Br': 3.0}",0.19304600975828043,3.9356028008418735,"{'G_Reuss': 6.0, 'G_VRH': 7.0, 'G_Voigt': 7.0, 'G_Voigt_Reuss_Hill': 7.0, 'K_Reuss': 16.0, 'K_VRH': 16.0, 'K_Voigt': 17.0, 'K_Voigt_Reuss_Hill': 16.0, 'elastic_anisotropy': 0.93, 'elastic_tensor': [[24.0, 9.0, 11.0, 0.0, 0.0, 0.0], [9.0, 24.0, 11.0, 0.0, 0.0, 0.0], [11.0, 11.0, 41.0, 0.0, 0.0, 0.0], [0.0, 0.0, 0.0, 4.0, 0.0, 0.0], [0.0, 0.0, 0.0, 0.0, 4.0, 0.0], [0.0, 0.0, 0.0, 0.0, 0.0, 7.0]], 'homogeneous_poisson': 0.32, 'poisson_ratio': 0.32, 'universal_anisotropy': 0.93, 'elastic_tensor_original': [[23.649935925602488, 9.61117314074047, 8.861387613935525, 0.0, 0.0, 0.0], [9.282792526113866, 24.553652039747817, 9.722837575677769, 0.0, 0.0, 0.0], [12.377065242179002, 12.377070043930512, 41.282594663456806, 0.0, 0.0, 0.0], [-0.0013052809222926197, 0.030413827313442412, 0.059573261938565866, 4.29818372824302, 0.0, 0.0], [-0.01662400769080705, -0.0022520951714194407, 0.002703754203044825, 0.0, 4.2094963780075565, 0.0], [-0.02092896584909567, 0.13205809117658526, 0.0002390235645519567, 0.0, 0.0, 7.24656604928751]], 'compliance_tensor': [[52.3, -16.4, -9.4, -0.0, 0.0, 0.0], [-16.4, 52.3, -9.4, -0.0, -0.0, 0.0], [-9.4, -9.4, 29.2, 0.0, 0.0, -0.0], [-0.0, -0.0, 0.0, 235.1, 0.0, 0.0], [0.0, -0.0, 0.0, 0.0, 235.1, -0.0], [0.0, 0.0, -0.0, 0.0, -0.0, 137.2]], 'warnings': [], 'nsites': 10}",0.0
209,mp-571457,Ti4NiBi2,"{'Ti': 4.0, 'Ni': 1.0, 'Bi': 2.0}",0.15654094113921582,8.139846942162718,,0.0
210,mp-5919,SmTiGe,"{'Sm': 1.0, 'Ti': 1.0, 'Ge': 1.0}",0.18492909998335572,6.775851360392393,,0.0
211,mp-616559,Ti2S,"{'Ti': 2.0, 'S': 1.0}",0.18172294113911178,4.80268802739094,"{'G_Reuss': 82.0, 'G_VRH': 85.0, 'G_Voigt': 87.0, 'G_Voigt_Reuss_Hill': 85.0, 'K_Reuss': 147.0, 'K_VRH': 147.0, 'K_Voigt': 147.0, 'K_Voigt_Reuss_Hill': 147.0, 'elastic_anisotropy': 0.28, 'elastic_tensor': [[274.0, 77.0, 91.0, 0.0, 0.0, 0.0], [77.0, 251.0, 111.0, 0.0, 0.0, 0.0], [91.0, 111.0, 245.0, 0.0, 0.0, 0.0], [0.0, 0.0, 0.0, 111.0, 0.0, 0.0], [0.0, 0.0, 0.0, 0.0, 99.0, 0.0], [0.0, 0.0, 0.0, 0.0, 0.0, 61.0]], 'homogeneous_poisson': 0.26, 'poisson_ratio': 0.26, 'universal_anisotropy': 0.28, 'elastic_tensor_original': [[245.40111512187121, 90.61186649601547, 110.73566682455656, 0.0, 0.0, 0.0], [90.9529348201235, 273.65920273034936, 77.08405716866392, 0.0, 0.0, 0.0], [110.58054127544462, 76.67108110932514, 251.39603530711142, 0.0, 0.0, 0.0], [1.850000750444813e-06, 6.666669374390671e-07, -1.950000791420486e-06, 60.50218831663715, 0.0, 0.0], [-1.4703321187011527e-05, 1.1143324130769857e-05, -4.5186629346110135e-05, 0.0, 110.96347417182047, 0.0], [-0.0011375623797488812, -0.008086799887759977, -0.00828878305177725, 0.0, 0.0, 98.97010008985336]], 'compliance_tensor': [[4.3, -0.8, -1.2, 0.0, 0.0, -0.0], [-0.8, 5.1, -2.0, 0.0, 0.0, 0.0], [-1.2, -2.0, 5.4, 0.0, 0.0, -0.0], [0.0, 0.0, 0.0, 9.0, 0.0, 0.0], [0.0, 0.0, 0.0, 0.0, 10.1, 0.0], [-0.0, 0.0, -0.0, 0.0, 0.0, 16.5]], 'warnings': [], 'nsites': 36}",0.0
212,mp-631,TiC,"{'Ti': 1.0, 'C': 1.0}",0.13254814609406856,4.87990698075401,"{'G_Reuss': 175.0, 'G_VRH': 176.0, 'G_Voigt': 176.0, 'G_Voigt_Reuss_Hill': 176.0, 'K_Reuss': 253.0, 'K_VRH': 253.0, 'K_Voigt': 253.0, 'K_Voigt_Reuss_Hill': 253.0, 'elastic_anisotropy': 0.02, 'elastic_tensor': [[505.0, 126.0, 126.0, 0.0, 0.0, 0.0], [126.0, 505.0, 126.0, 0.0, 0.0, 0.0], [126.0, 126.0, 505.0, 0.0, 0.0, 0.0], [0.0, 0.0, 0.0, 167.0, 0.0, 0.0], [0.0, 0.0, 0.0, 0.0, 167.0, 0.0], [0.0, 0.0, 0.0, 0.0, 0.0, 167.0]], 'homogeneous_poisson': 0.22, 'poisson_ratio': 0.22, 'universal_anisotropy': 0.02, 'elastic_tensor_original': [[504.6777468823636, 126.43075684746762, 126.43075684746762, 0.0, 0.0, 0.0], [126.48396753054534, 505.0883012893613, 126.48396753054534, 0.0, 0.0, 0.0], [126.49835684881447, 126.49835684881447, 505.1131898767262, 0.0, 0.0, 0.0], [-0.0002845563376463759, -9.515988996987364e-05, -0.0006090759624186674, 167.09711378606954, 0.0, 0.0], [-0.0002789063441788917, 0.0003282362871409642, 0.000524419393635603, 0.0, 167.0970940960923, 0.0], [0.0008235090478115664, 8.462323548679126e-05, 0.000774445771208049, 0.0, 0.0, 167.09733248915003]], 'compliance_tensor': [[2.2, -0.4, -0.4, -0.0, -0.0, 0.0], [-0.4, 2.2, -0.4, 0.0, -0.0, -0.0], [-0.4, -0.4, 2.2, -0.0, 0.0, -0.0], [-0.0, 0.0, -0.0, 6.0, -0.0, -0.0], [-0.0, -0.0, 0.0, -0.0, 6.0, -0.0], [0.0, -0.0, -0.0, -0.0, -0.0, 6.0]], 'warnings': [], 'nsites': 2}",0.0
213,mp-672645,TiSiRh,"{'Ti': 1.0, 'Si': 1.0, 'Rh': 1.0}",0.1137446072215396,6.784636672305928,"{'G_Reuss': 87.0, 'G_VRH': 88.0, 'G_Voigt': 90.0, 'G_Voigt_Reuss_Hill': 88.0, 'K_Reuss': 186.0, 'K_VRH': 187.0, 'K_Voigt': 188.0, 'K_Voigt_Reuss_Hill': 187.0, 'elastic_anisotropy': 0.22, 'elastic_tensor': [[274.0, 115.0, 138.0, 0.0, 0.0, 0.0], [115.0, 328.0, 157.0, 0.0, 0.0, 0.0], [138.0, 157.0, 268.0, 0.0, 0.0, 0.0], [0.0, 0.0, 0.0, 94.0, 0.0, 0.0], [0.0, 0.0, 0.0, 0.0, 107.0, 0.0], [0.0, 0.0, 0.0, 0.0, 0.0, 97.0]], 'homogeneous_poisson': 0.3, 'poisson_ratio': 0.3, 'universal_anisotropy': 0.22, 'elastic_tensor_original': [[268.1186571932065, 138.98671183422888, 155.71975948381743, 0.0, 0.0, 0.0], [137.52644832383902, 274.14728514570885, 115.66168687080534, 0.0, 0.0, 0.0], [157.55648142502034, 115.07008917070483, 327.7741157218423, 0.0, 0.0, 0.0], [2.7209984810109953e-05, -0.00013704659016433503, 0.00016965990529071976, 96.52708304238357, 0.0, 0.0], [-0.0001361432138690734, -0.00013810987880934694, 0.0002256131353576722, 0.0, 94.39289263703574, 0.0], [0.00030364307462757244, 0.0003807563422525345, 0.00017308318586199022, 0.0, 0.0, 106.79141441072268]], 'compliance_tensor': [[5.1, -0.7, -2.2, 0.0, 0.0, 0.0], [-0.7, 4.3, -2.2, 0.0, 0.0, 0.0], [-2.2, -2.2, 6.1, 0.0, -0.0, 0.0], [0.0, 0.0, 0.0, 10.6, 0.0, 0.0], [0.0, 0.0, -0.0, 0.0, 9.4, 0.0], [0.0, 0.0, 0.0, 0.0, 0.0, 10.4]], 'warnings': [], 'nsites': 12}",0.0
214,mp-675056,Na3(TiS2)10,"{'Na': 3.0, 'Ti': 10.0, 'S': 20.0}",0.155590186092411,2.9944780819826056,,0.0
215,mp-7126,TiSnSb,"{'Ti': 1.0, 'Sn': 1.0, 'Sb': 1.0}",0.11125688079541406,7.220209816531484,,0.0
216,mp-742,Ti2Cu,"{'Ti': 2.0, 'Cu': 1.0}",0.1619308695657307,5.72218027117513,"{'G_Reuss': 50.0, 'G_VRH': 55.0, 'G_Voigt': 60.0, 'G_Voigt_Reuss_Hill': 55.0, 'K_Reuss': 126.0, 'K_VRH': 126.0, 'K_Voigt': 126.0, 'K_Voigt_Reuss_Hill': 126.0, 'elastic_anisotropy': 1.04, 'elastic_tensor': [[196.0, 75.0, 108.0, 0.0, 0.0, 0.0], [75.0, 196.0, 108.0, 0.0, 0.0, 0.0], [108.0, 108.0, 159.0, 0.0, 0.0, 0.0], [0.0, 0.0, 0.0, 85.0, 0.0, 0.0], [0.0, 0.0, 0.0, 0.0, 85.0, 0.0], [0.0, 0.0, 0.0, 0.0, 0.0, 46.0]], 'homogeneous_poisson': 0.31, 'poisson_ratio': 0.31, 'universal_anisotropy': 1.04, 'elastic_tensor_original': [[196.03793241003297, 74.6059849175574, 108.25744116530826, 0.0, 0.0, 0.0], [74.60078753214387, 196.03633183262377, 108.25234665807596, 0.0, 0.0, 0.0], [107.37576928520414, 107.37576928520414, 159.29941387717895, 0.0, 0.0, 0.0], [-0.00033478306547676253, -0.00022747315133345083, -0.00039041968762966944, 84.56766681502245, 0.0, 0.0], [-0.0002079998335806477, -8.1066601806217e-05, -0.00019030318107394906, 0.0, 84.56744253186856, 0.0], [0.0003694230661783821, 0.00023041316670575695, 0.0003272330966900606, 0.0, 0.0, 45.71032012376184]], 'compliance_tensor': [[8.1, -0.1, -5.4, 0.0, 0.0, 0.0], [-0.1, 8.1, -5.4, 0.0, -0.0, -0.0], [-5.4, -5.4, 13.6, -0.0, 0.0, 0.0], [0.0, 0.0, -0.0, 11.8, -0.0, -0.0], [0.0, -0.0, 0.0, -0.0, 11.8, 0.0], [0.0, -0.0, 0.0, -0.0, 0.0, 21.9]], 'warnings': [], 'nsites': 3}",0.0
217,mp-753802,Sc2Ti2O7,"{'Sc': 2.0, 'Ti': 2.0, 'O': 7.0}",0.4703273225058381,3.3381635201419226,"{'G_Reuss': 46.0, 'G_VRH': 48.0, 'G_Voigt': 51.0, 'G_Voigt_Reuss_Hill': 48.0, 'K_Reuss': 134.0, 'K_VRH': 137.0, 'K_Voigt': 141.0, 'K_Voigt_Reuss_Hill': 137.0, 'elastic_anisotropy': 0.52, 'elastic_tensor': [[253.0, 120.0, 106.0, 0.0, -10.0, 0.0], [120.0, 171.0, 92.0, 0.0, 18.0, 0.0], [106.0, 92.0, 204.0, 0.0, -6.0, 0.0], [0.0, 0.0, 0.0, 39.0, 0.0, 7.0], [-10.0, 18.0, -6.0, 0.0, 57.0, 0.0], [0.0, 0.0, 0.0, 7.0, 0.0, 53.0]], 'homogeneous_poisson': 0.34, 'poisson_ratio': 0.34, 'universal_anisotropy': 0.52, 'elastic_tensor_original': [[171.256631538582, 111.75323824698746, 98.42035391509039, -21.807183576987033, 0.0, 0.0], [113.6848478781235, 257.7647542679088, 105.70092692694837, 3.850716444467092, 0.0, 0.0], [99.84040423696713, 105.0302137774032, 201.3116277086845, 2.8316967383465435, 0.0, 0.0], [-21.64261501496005, 2.826459167962002, 2.918571435875828, 55.92324365758444, 0.0, 0.0], [0.00014265660298978968, -0.0004876297823405554, 0.0037696083173894674, -0.0028282987375545534, 42.06555946019557, -8.984168443141117], [0.04857154576571672, -0.07699824686668168, 0.053534816963291626, -0.029518520631140705, -8.65703494476845, 50.314450669055965]], 'compliance_tensor': [[6.6, -4.0, -1.6, 0.0, 2.3, 0.0], [-4.0, 10.6, -2.8, 0.0, -4.3, 0.0], [-1.6, -2.8, 7.0, 0.0, 1.3, 0.0], [0.0, 0.0, 0.0, 26.1, 0.0, -3.3], [2.3, -4.3, 1.3, 0.0, 19.5, 0.0], [0.0, 0.0, 0.0, -3.3, 0.0, 19.2]], 'warnings': [], 'nsites': 11}",0.0
218,mp-756510,K4TiO4,"{'K': 4.0, 'Ti': 1.0, 'O': 4.0}",0.5370351699975151,2.5195992785466523,,0.0
219,mp-759489,BaTi8O16,"{'Ba': 1.0, 'Ti': 8.0, 'O': 16.0}",0.5422587896461661,4.145155452810453,,0.0
220,mp-7603,Li2TiF6,"{'Li': 2.0, 'Ti': 1.0, 'F': 6.0}",0.17311316128871185,2.886520546058677,"{'G_Reuss': 29.0, 'G_VRH': 30.0, 'G_Voigt': 30.0, 'G_Voigt_Reuss_Hill': 30.0, 'K_Reuss': 49.0, 'K_VRH': 49.0, 'K_Voigt': 49.0, 'K_Voigt_Reuss_Hill': 49.0, 'elastic_anisotropy': 0.26, 'elastic_tensor': [[84.0, 39.0, 25.0, 0.0, 0.0, 0.0], [39.0, 84.0, 25.0, 0.0, 0.0, 0.0], [25.0, 25.0, 99.0, 0.0, 0.0, 0.0], [0.0, 0.0, 0.0, 26.0, 0.0, 0.0], [0.0, 0.0, 0.0, 0.0, 26.0, 0.0], [0.0, 0.0, 0.0, 0.0, 0.0, 40.0]], 'homogeneous_poisson': 0.25, 'poisson_ratio': 0.25, 'universal_anisotropy': 0.26, 'elastic_tensor_original': [[83.70930756323722, 39.228040386828205, 24.968068926711343, 0.0, 0.0, 0.0], [38.383950748093135, 83.35604916267502, 23.836771944658995, 0.0, 0.0, 0.0], [25.54244661917141, 25.54244661917141, 99.00715800547643, 0.0, 0.0, 0.0], [0.010711875035489126, 0.011240208791630095, 0.02042976900352631, 26.146468447706056, 0.0, 0.0], [0.007070399698390169, 0.010093527388886239, 0.018611190632189634, 0.0, 26.151418766317864, 0.0], [-0.00020532668712371527, -0.0002112233513819587, -0.00019282666019595536, 0.0, 0.0, 40.32545629553859]], 'compliance_tensor': [[15.7, -6.6, -2.3, 0.0, 0.0, 0.0], [-6.6, 15.7, -2.3, 0.0, 0.0, 0.0], [-2.3, -2.3, 11.3, -0.0, 0.0, 0.0], [0.0, 0.0, -0.0, 38.2, 0.0, 0.0], [0.0, 0.0, 0.0, 0.0, 38.2, 0.0], [0.0, 0.0, 0.0, 0.0, 0.0, 24.8]], 'warnings': [], 'nsites': 18}",0.0
221,mp-768605,Ho2TiO5,"{'Ho': 2.0, 'Ti': 1.0, 'O': 5.0}",0.4944725447474195,6.9683683573534125,,0.0
222,mp-770816,Dy2TiO5,"{'Dy': 2.0, 'Ti': 1.0, 'O': 5.0}",0.5152248288453504,6.844953428074582,,0.0
223,mp-771323,Tm2Ti2O7,"{'Tm': 2.0, 'Ti': 2.0, 'O': 7.0}",0.5825316884672659,7.053011843200223,,0.0
224,mp-8447,K5Ti3F14,"{'K': 5.0, 'Ti': 3.0, 'F': 14.0}",0.27358177658369326,2.698529159491405,,0.0
225,mp-861641,Ti2CoRe,"{'Ti': 2.0, 'Co': 1.0, 'Re': 1.0}",0.15044112075312538,9.912983598641455,"{'G_Reuss': 96.0, 'G_VRH': 97.0, 'G_Voigt': 98.0, 'G_Voigt_Reuss_Hill': 97.0, 'K_Reuss': 196.0, 'K_VRH': 196.0, 'K_Voigt': 196.0, 'K_Voigt_Reuss_Hill': 196.0, 'elastic_anisotropy': 0.08, 'elastic_tensor': [[348.0, 120.0, 120.0, 0.0, 0.0, 0.0], [120.0, 348.0, 120.0, 0.0, 0.0, 0.0], [120.0, 120.0, 348.0, 0.0, 0.0, 0.0], [0.0, 0.0, 0.0, 87.0, 0.0, 0.0], [0.0, 0.0, 0.0, 0.0, 87.0, 0.0], [0.0, 0.0, 0.0, 0.0, 0.0, 87.0]], 'homogeneous_poisson': 0.29, 'poisson_ratio': 0.29, 'universal_anisotropy': 0.08, 'elastic_tensor_original': [[350.2584454231452, 120.56152816089326, 120.56152816089326, 0.0, 0.0, 0.0], [115.9627281028724, 341.7353617174463, 115.96337735734535, 5.3132121343881976e-05, -0.0002967378852413031, 2.3658831390860656e-05], [124.4711489083757, 124.4711489083757, 352.0589991951767, 0.0, 0.0, 0.0], [-0.9416720078210915, -0.9066740750411154, -1.0052436289255442, 87.4718961025982, 0.0, 0.0], [1.0010160881870946, 0.6933754044495666, 0.889448505365551, 0.0, 87.38554345751443, 0.0], [0.07915330049287182, 0.014700772567876285, 0.06064430059312019, 0.0, 0.0, 87.2508505539868]], 'compliance_tensor': [[3.5, -0.9, -0.9, -0.0, -0.0, 0.0], [-0.9, 3.5, -0.9, 0.0, -0.0, -0.0], [-0.9, -0.9, 3.5, -0.0, 0.0, -0.0], [-0.0, 0.0, -0.0, 11.4, -0.0, -0.0], [-0.0, -0.0, 0.0, -0.0, 11.4, -0.0], [0.0, -0.0, -0.0, -0.0, -0.0, 11.4]], 'warnings': [], 'nsites': 4}",0.0
226,mp-8648,TiFeSi,"{'Ti': 1.0, 'Fe': 1.0, 'Si': 1.0}",0.1501576695810445,5.624878004168807,"{'G_Reuss': 105.0, 'G_VRH': 109.0, 'G_Voigt': 113.0, 'G_Voigt_Reuss_Hill': 109.0, 'K_Reuss': 183.0, 'K_VRH': 183.0, 'K_Voigt': 183.0, 'K_Voigt_Reuss_Hill': 183.0, 'elastic_anisotropy': 0.4, 'elastic_tensor': [[264.0, 131.0, 144.0, 0.0, 0.0, 0.0], [131.0, 332.0, 99.0, 0.0, 0.0, 0.0], [144.0, 99.0, 306.0, 0.0, 0.0, 0.0], [0.0, 0.0, 0.0, 113.0, 0.0, 0.0], [0.0, 0.0, 0.0, 0.0, 137.0, 0.0], [0.0, 0.0, 0.0, 0.0, 0.0, 139.0]], 'homogeneous_poisson': 0.25, 'poisson_ratio': 0.25, 'universal_anisotropy': 0.4, 'elastic_tensor_original': [[305.81234083506547, 143.77773512943907, 98.37670313364579, 0.0, 0.0, 0.0], [143.92726090936614, 264.4459233969664, 130.72636071245478, 0.0, 0.0, 0.0], [99.63301790722808, 131.8259173578933, 332.031481314014, 0.0, 0.0, 0.0], [-0.18538881422206982, -0.17769181735090175, -0.17454931671739027, 139.08521352064486, 0.0, 0.0], [0.053694189532172996, 0.05358523597756963, 0.05269102597552424, 0.0, 112.8403693021835, 0.0], [-0.00707232919388977, -0.007908212454414441, -0.0075951096525323685, 0.0, 0.0, 136.5810853195908]], 'compliance_tensor': [[5.8, -1.6, -2.2, 0.0, 0.0, 0.0], [-1.6, 3.8, -0.5, 0.0, 0.0, 0.0], [-2.2, -0.5, 4.5, 0.0, 0.0, 0.0], [0.0, 0.0, 0.0, 8.9, 0.0, 0.0], [0.0, 0.0, 0.0, 0.0, 7.3, 0.0], [0.0, 0.0, 0.0, 0.0, 0.0, 7.2]], 'warnings': [], 'nsites': 18}",0.0
227,mp-865048,TiZnIr2,"{'Ti': 1.0, 'Zn': 1.0, 'Ir': 2.0}",0.1592116803445447,14.313777243307232,"{'G_Reuss': 99.0, 'G_VRH': 103.0, 'G_Voigt': 107.0, 'G_Voigt_Reuss_Hill': 103.0, 'K_Reuss': 225.0, 'K_VRH': 225.0, 'K_Voigt': 225.0, 'K_Voigt_Reuss_Hill': 225.0, 'elastic_anisotropy': 0.38, 'elastic_tensor': [[324.0, 176.0, 176.0, 0.0, 0.0, 0.0], [176.0, 324.0, 176.0, 0.0, 0.0, 0.0], [176.0, 176.0, 324.0, 0.0, 0.0, 0.0], [0.0, 0.0, 0.0, 129.0, 0.0, 0.0], [0.0, 0.0, 0.0, 0.0, 129.0, 0.0], [0.0, 0.0, 0.0, 0.0, 0.0, 129.0]], 'homogeneous_poisson': 0.3, 'poisson_ratio': 0.3, 'universal_anisotropy': 0.38, 'elastic_tensor_original': [[323.6938675800874, 176.3222342590663, 176.3222342590663, 0.0, 0.0, 0.0], [176.33538282831068, 323.70669949234855, 176.33538282831068, 0.0, 0.0, 0.0], [176.31944493832637, 176.31944493832637, 323.6911892650096, 0.0, 0.0, 0.0], [-4.626998954219803e-05, -4.678754424398087e-05, -3.961280028745719e-05, 128.63780944941502, 0.0, 0.0], [2.0765065762662753e-05, 2.78401484714456e-05, 1.23164260115077e-06, 0.0, 128.63780269341697, 0.0], [0.00010562749958923631, 0.00010229608636599904, 0.00010681661031488912, 0.0, 0.0, 128.63780252224993]], 'compliance_tensor': [[5.0, -1.8, -1.8, -0.0, -0.0, 0.0], [-1.8, 5.0, -1.8, 0.0, 0.0, 0.0], [-1.8, -1.8, 5.0, 0.0, -0.0, -0.0], [-0.0, 0.0, 0.0, 7.8, 0.0, -0.0], [-0.0, 0.0, -0.0, 0.0, 7.8, 0.0], [0.0, 0.0, -0.0, -0.0, 0.0, 7.8]], 'warnings': [], 'nsites': 4}",0.0
228,mp-865093,TiZnNi2,"{'Ti': 1.0, 'Zn': 1.0, 'Ni': 2.0}",0.17505037660259753,7.587307353396716,"{'G_Reuss': 38.0, 'G_VRH': 50.0, 'G_Voigt': 62.0, 'G_Voigt_Reuss_Hill': 50.0, 'K_Reuss': 169.0, 'K_VRH': 169.0, 'K_Voigt': 169.0, 'K_Voigt_Reuss_Hill': 169.0, 'elastic_anisotropy': 3.21, 'elastic_tensor': [[196.0, 156.0, 156.0, 0.0, 0.0, 0.0], [156.0, 196.0, 156.0, 0.0, 0.0, 0.0], [156.0, 156.0, 196.0, 0.0, 0.0, 0.0], [0.0, 0.0, 0.0, 90.0, 0.0, 0.0], [0.0, 0.0, 0.0, 0.0, 90.0, 0.0], [0.0, 0.0, 0.0, 0.0, 0.0, 90.0]], 'homogeneous_poisson': 0.37, 'poisson_ratio': 0.37, 'universal_anisotropy': 3.21, 'elastic_tensor_original': [[194.93641894763266, 154.34644164557898, 154.34644164557898, 0.0, 0.0, 0.0], [154.42528184076494, 195.01474507089873, 154.42528184076494, 0.0, 0.0, 0.0], [157.78532234783236, 157.78532234783236, 197.84829098837594, 0.0, 0.0, 0.0], [0.0026945180148057425, 0.0027402681206142926, 0.002736438120404558, 89.97234606717566, 0.0, 0.0], [-0.00015968012629507045, -8.558678171207429e-05, -0.00014832678989238555, 0.0, 89.97233220379997, 0.0], [-0.002656868078336086, -0.002665174758894198, -0.0025614213063215336, 0.0, 0.0, 89.97231627715583]], 'compliance_tensor': [[17.2, -7.6, -7.6, 0.0, -0.0, -0.0], [-7.6, 17.2, -7.6, -0.0, 0.0, -0.0], [-7.6, -7.6, 17.2, -0.0, -0.0, 0.0], [0.0, -0.0, -0.0, 11.1, -0.0, -0.0], [-0.0, 0.0, -0.0, -0.0, 11.1, -0.0], [-0.0, -0.0, 0.0, -0.0, -0.0, 11.1]], 'warnings': [], 'nsites': 4}",0.0