,mp_id,Formula,Composition,IPF,Density,Elastic_Tensor,E_above_Hull
1027,mp-1224604,K2Na4Li2Ti4Mn3Fe(SiO3)16,"{'K': 2.0, 'Na': 4.0, 'Li': 2.0, 'Ti': 4.0, 'Mn': 3.0, 'Fe': 1.0, 'Si': 16.0, 'O': 48.0}",0.5012690419028207,3.0756054702351783,,0.38386462498607443
1028,mp-1228057,BaNa4Ti2Si10(BO15)2,"{'Ba': 1.0, 'Na': 4.0, 'Ti': 2.0, 'Si': 10.0, 'B': 2.0, 'O': 30.0}",0.49145577209299707,2.975622607495655,,0.0
1029,mp-1244648,MgTiMo(PO4)3,"{'Mg': 1.0, 'Ti': 1.0, 'Mo': 1.0, 'P': 3.0, 'O': 12.0}",0.4721072890246419,3.2332799898766784,,0.39617504809896786
1030,mp-534850,NaCa9Ti9Nb(SiO5)10,"{'Na': 1.0, 'Ca': 9.0, 'Ti': 9.0, 'Nb': 1.0, 'Si': 10.0, 'O': 50.0}",0.5357583280844695,3.4443493811700865,,0.0
1031,mp-554016,K4Ti2PO4F9,"{'K': 4.0, 'Ti': 2.0, 'P': 1.0, 'O': 4.0, 'F': 9.0}",0.34124429654431143,2.6343630738376054,,0.0
1032,mp-558370,Ca3TiBe2Si2(As3O10)2,"{'Ca': 3.0, 'Ti': 1.0, 'Be': 2.0, 'Si': 2.0, 'As': 6.0, 'O': 20.0}",0.41709884140312176,3.5206154984822917,,0.0
1033,mp-581138,Cs2TiV3(PO6)3,"{'Cs': 2.0, 'Ti': 1.0, 'V': 3.0, 'P': 3.0, 'O': 18.0}",0.520327544980607,3.468654363640881,,0.0
1034,mp-641919,KLi3Ca7Ti2Si12(O18F)2,"{'K': 1.0, 'Li': 3.0, 'Ca': 7.0, 'Ti': 2.0, 'Si': 12.0, 'O': 36.0, 'F': 2.0}",0.46894106797045687,2.805824513360274,,0.0
1035,mp-677733,K2TiAl(PO4)3,"{'K': 2.0, 'Ti': 1.0, 'Al': 1.0, 'P': 3.0, 'O': 12.0}",0.5700818339203338,3.049878987843216,,0.0
1036,mp-684782,CsTiMnOF5,"{'Cs': 1.0, 'Ti': 1.0, 'Mn': 1.0, 'O': 1.0, 'F': 5.0}",0.29182745209174094,3.7937576081152207,,0.0
1037,mp-694049,NaCa4TaTi4(SiO5)5,"{'Na': 1.0, 'Ca': 4.0, 'Ta': 1.0, 'Ti': 4.0, 'Si': 5.0, 'O': 25.0}",0.5326702626897549,3.775522786147963,,0.0
1038,mp-696940,TiH12C2(NF)6,"{'Ti': 1.0, 'H': 12.0, 'C': 2.0, 'N': 6.0, 'F': 6.0}",0.06443065046590193,1.6851736645029594,,0.0
1039,mp-720394,Ca5TaTi3Al(SiO5)5,"{'Ca': 5.0, 'Ta': 1.0, 'Ti': 3.0, 'Al': 1.0, 'Si': 5.0, 'O': 25.0}",0.5364858058220348,3.813626567039391,,0.0
1040,mp-720410,K2NaCa2TiSi7HO20,"{'K': 2.0, 'Na': 1.0, 'Ca': 2.0, 'Ti': 1.0, 'Si': 7.0, 'H': 1.0, 'O': 20.0}",0.4872104083506325,2.707442158371834,,0.0
1041,mp-744094,Ba2La6Mg4Ti3WO24,"{'Ba': 2.0, 'La': 6.0, 'Mg': 4.0, 'Ti': 3.0, 'W': 1.0, 'O': 24.0}",0.5175110468485667,5.688036475470357,,0.0
1042,mp-776286,Ti3CrSn2(PO4)6,"{'Ti': 3.0, 'Cr': 1.0, 'Sn': 2.0, 'P': 6.0, 'O': 24.0}",0.4565615158694821,3.4353797363046814,,0.0