,mp_id,Formula,Composition,IPF,Density,Elastic_Tensor,E_above_Hull
79,mp-305,TiFe,"{'Ti': 1.0, 'Fe': 1.0}",0.1998886594219398,6.642034495803114,"{'G_Reuss': 92.0, 'G_VRH': 97.0, 'G_Voigt': 102.0, 'G_Voigt_Reuss_Hill': 97.0, 'K_Reuss': 194.0, 'K_VRH': 194.0, 'K_Voigt': 194.0, 'K_Voigt_Reuss_Hill': 194.0, 'elastic_anisotropy': 0.55, 'elastic_tensor': [[386.0, 98.0, 98.0, 0.0, 0.0, 0.0], [98.0, 386.0, 98.0, 0.0, 0.0, 0.0], [98.0, 98.0, 386.0, 0.0, 0.0, 0.0], [0.0, 0.0, 0.0, 74.0, 0.0, 0.0], [0.0, 0.0, 0.0, 0.0, 74.0, 0.0], [0.0, 0.0, 0.0, 0.0, 0.0, 74.0]], 'homogeneous_poisson': 0.29, 'poisson_ratio': 0.29, 'universal_anisotropy': 0.55, 'elastic_tensor_original': [[385.7232881106923, 98.04473157533569, 98.04473157533569, 0.0, 0.0, 0.0], [98.04493526578352, 385.7223736986999, 98.04493526578352, 0.0, 0.0, 0.0], [98.03981738535717, 98.03981738535717, 385.71740032593345, 0.0, 0.0, 0.0], [0.00013806984340893364, 9.633317727118505e-05, 2.5696418974071768e-05, 74.17113891029258, 0.0, 0.0], [0.0002286084675952127, 0.0002626291197113069, 0.0001627891661207503, 0.0, 74.17142509907343, 0.0], [0.0002540060773320343, 0.0003202897775809058, 0.00026552673921772347, 0.0, 0.0, 74.1712232801221]], 'compliance_tensor': [[2.9, -0.6, -0.6, -0.0, 0.0, 0.0], [-0.6, 2.9, -0.6, 0.0, -0.0, -0.0], [-0.6, -0.6, 2.9, -0.0, 0.0, -0.0], [-0.0, 0.0, -0.0, 13.5, -0.0, 0.0], [0.0, -0.0, 0.0, -0.0, 13.5, 0.0], [0.0, -0.0, -0.0, 0.0, 0.0, 13.5]], 'warnings': [], 'nsites': 2}",0.0
80,mp-30500,TiCd,"{'Ti': 1.0, 'Cd': 1.0}",0.20764917456044876,6.897648170834788,"{'G_Reuss': -0.0, 'G_VRH': 19.0, 'G_Voigt': 38.0, 'G_Voigt_Reuss_Hill': 19.0, 'K_Reuss': 81.0, 'K_VRH': 81.0, 'K_Voigt': 81.0, 'K_Voigt_Reuss_Hill': 81.0, 'elastic_anisotropy': -413.66, 'elastic_tensor': [[166.0, 28.0, 56.0, 0.0, 0.0, 0.0], [28.0, 166.0, 56.0, 0.0, 0.0, 0.0], [56.0, 56.0, 117.0, 0.0, 0.0, 0.0], [0.0, 0.0, 0.0, 45.0, 0.0, 0.0], [0.0, 0.0, 0.0, 0.0, 45.0, 0.0], [0.0, 0.0, 0.0, 0.0, 0.0, -0.0]], 'homogeneous_poisson': 0.39, 'poisson_ratio': 0.39, 'universal_anisotropy': -413.66, 'elastic_tensor_original': [[165.5230613273571, 28.09328681792912, 56.15371657668021, 0.0, 0.0, 0.0], [28.093856013347743, 165.52310461545468, 56.15428295171098, 0.0, 0.0, 0.0], [56.02127000527178, 56.02127000527178, 117.07244524487983, 0.0, 0.0, 0.0], [-6.534988837223591e-05, -0.00012542311908998247, 1.1049981123442705e-05, 44.628119167869485, 0.0, 0.0], [-3.2109945150910445e-05, -1.3099977623453316e-05, 0.0001290964461472308, 0.0, 44.62825841096497, 0.0], [0.00013391309243703547, 8.757650912566494e-05, 9.853315608276494e-05, 0.0, 0.0, -0.09307778922923565]], 'compliance_tensor': [[7.2, -0.1, -3.4, 0.0, -0.0, 0.0], [-0.1, 7.2, -3.4, -0.0, -0.0, -0.0], [-3.4, -3.4, 11.8, -0.0, 0.0, 0.0], [0.0, -0.0, -0.0, 22.4, -0.0, 0.0], [-0.0, -0.0, 0.0, -0.0, 22.4, 0.0], [0.0, -0.0, 0.0, 0.0, 0.0, -10743.7]], 'warnings': ['Elastic tensor has a negative eigenvalue', 'One or more K, G below 2 GPa'], 'nsites': 4}",0.0
81,mp-30501,Ti2Cd,"{'Ti': 2.0, 'Cd': 1.0}",0.1906293122472227,6.215938143385086,"{'G_Reuss': 17.0, 'G_VRH': 33.0, 'G_Voigt': 49.0, 'G_Voigt_Reuss_Hill': 33.0, 'K_Reuss': 91.0, 'K_VRH': 91.0, 'K_Voigt': 92.0, 'K_Voigt_Reuss_Hill': 91.0, 'elastic_anisotropy': 9.32, 'elastic_tensor': [[186.0, 32.0, 63.0, 0.0, 0.0, 0.0], [32.0, 186.0, 63.0, 0.0, 0.0, 0.0], [63.0, 63.0, 137.0, 0.0, 0.0, 0.0], [0.0, 0.0, 0.0, 61.0, 0.0, 0.0], [0.0, 0.0, 0.0, 0.0, 61.0, 0.0], [0.0, 0.0, 0.0, 0.0, 0.0, 4.0]], 'homogeneous_poisson': 0.34, 'poisson_ratio': 0.34, 'universal_anisotropy': 9.32, 'elastic_tensor_original': [[186.04456565048173, 32.271096042596184, 63.52897796670029, 0.0, 0.0, 0.0], [32.27131353110853, 186.04565340413222, 63.5301425085783, 0.0, 0.0, 0.0], [61.52483772985472, 61.52483772985472, 137.29504610611284, 0.0, 0.0, 0.0], [-0.0001522631354279025, 0.00014920313940663875, -3.92066157069807e-05, 60.96282369999468, 0.0, 0.0], [5.506326176465033e-05, 5.523659487308349e-05, -0.00016840978110822222, 0.0, 60.9626504568865, 0.0], [-7.528988984599164e-05, -0.00012611648215001299, -9.410319565424742e-05, 0.0, 0.0, 4.483533486965687]], 'compliance_tensor': [[6.4, -0.2, -2.8, 0.0, -0.0, -0.0], [-0.2, 6.4, -2.8, -0.0, -0.0, -0.0], [-2.8, -2.8, 9.9, 0.0, 0.0, 0.0], [0.0, -0.0, 0.0, 16.4, 0.0, -0.0], [-0.0, -0.0, 0.0, 0.0, 16.4, 0.0], [-0.0, -0.0, 0.0, -0.0, 0.0, 223.0]], 'warnings': [], 'nsites': 3}",0.0
82,mp-30671,Ti2Ga,"{'Ti': 2.0, 'Ga': 1.0}",0.1442288588506151,5.649651697567152,"{'G_Reuss': 62.0, 'G_VRH': 63.0, 'G_Voigt': 64.0, 'G_Voigt_Reuss_Hill': 63.0, 'K_Reuss': 121.0, 'K_VRH': 121.0, 'K_Voigt': 121.0, 'K_Voigt_Reuss_Hill': 121.0, 'elastic_anisotropy': 0.2, 'elastic_tensor': [[210.0, 107.0, 59.0, 0.0, 0.0, 0.0], [107.0, 210.0, 59.0, 0.0, 0.0, 0.0], [59.0, 59.0, 222.0, 0.0, 0.0, 0.0], [0.0, 0.0, 0.0, 64.0, 0.0, 0.0], [0.0, 0.0, 0.0, 0.0, 64.0, 0.0], [0.0, 0.0, 0.0, 0.0, 0.0, 52.0]], 'homogeneous_poisson': 0.28, 'poisson_ratio': 0.28, 'universal_anisotropy': 0.2, 'elastic_tensor_original': [[210.58371725795791, 106.55958768926148, 59.154400857005584, 0.0, 0.0, 0.0], [106.25652733155215, 210.9121166786406, 59.12697081502716, 0.0, 0.0, 0.0], [58.03439167063538, 58.04136037786026, 221.55701438705745, 0.0007762856572167062, 0.0007812980910796169, 0.0009435405503543104], [-0.0001463797964294637, 0.0006789823890724911, 0.00024486965945946787, 64.0016186161826, 0.0, 0.0], [-2.4886752770609304e-05, -8.630029858858261e-05, -4.4663487863530196e-05, 0.0, 64.08660709519299, 0.0], [8.603246842196631e-06, -1.2759833628217574e-05, 5.668665745683561e-05, 0.0, 0.0, 51.61543064655287]], 'compliance_tensor': [[6.6, -3.1, -0.9, -0.0, 0.0, 0.0], [-3.1, 6.6, -0.9, 0.0, 0.0, 0.0], [-0.9, -0.9, 5.0, -0.0, -0.0, -0.0], [-0.0, 0.0, -0.0, 15.6, 0.0, 0.0], [0.0, 0.0, -0.0, 0.0, 15.6, 0.0], [0.0, 0.0, -0.0, 0.0, 0.0, 19.3]], 'warnings': [], 'nsites': 6}",0.0
83,mp-30672,Ti3Ga,"{'Ti': 3.0, 'Ga': 1.0}",0.14681722111185752,5.416551057420764,"{'G_Reuss': 54.0, 'G_VRH': 56.0, 'G_Voigt': 57.0, 'G_Voigt_Reuss_Hill': 56.0, 'K_Reuss': 118.0, 'K_VRH': 118.0, 'K_Voigt': 118.0, 'K_Voigt_Reuss_Hill': 118.0, 'elastic_anisotropy': 0.22, 'elastic_tensor': [[184.0, 95.0, 68.0, 0.0, 0.0, 0.0], [95.0, 184.0, 68.0, 0.0, 0.0, 0.0], [68.0, 68.0, 231.0, 0.0, 0.0, 0.0], [0.0, 0.0, 0.0, 59.0, 0.0, 0.0], [0.0, 0.0, 0.0, 0.0, 59.0, 0.0], [0.0, 0.0, 0.0, 0.0, 0.0, 45.0]], 'homogeneous_poisson': 0.3, 'poisson_ratio': 0.3, 'universal_anisotropy': 0.22, 'elastic_tensor_original': [[185.51287725167262, 93.83683380151236, 68.53486722216485, 0.0, 0.0, 0.0], [94.0729389932608, 184.72794912001808, 68.38512522055085, 0.0, 0.0, 0.0], [68.40596720244221, 68.40596628254897, 230.89932182105278, 0.0, 0.0, 0.0], [-0.0001383036249820706, -0.00012487339757961618, -0.00040166688486179897, 58.851780192270354, 0.0, 0.0], [-0.00043395615999997994, -8.08732582181577e-05, -0.00013091649962448576, 0.0, 58.7954642032385, 0.0], [0.0003439467797630388, 0.0004689601556486623, 0.00017326005878286256, 0.0, 0.0, 43.53407525698559]], 'compliance_tensor': [[7.7, -3.5, -1.2, -0.0, 0.0, 0.0], [-3.5, 7.7, -1.2, -0.0, 0.0, 0.0], [-1.2, -1.2, 5.1, 0.0, 0.0, -0.0], [0.0, -0.0, 0.0, 17.0, 0.0, -0.0], [-0.0, -0.0, 0.0, 0.0, 17.0, 0.0], [0.0, 0.0, -0.0, 0.0, -0.0, 22.4]], 'warnings': [], 'nsites': 8}",0.0
84,mp-30673,Ti2Ga3,"{'Ti': 2.0, 'Ga': 3.0}",0.13478875984974334,6.382990495806396,"{'G_Reuss': 65.0, 'G_VRH': 67.0, 'G_Voigt': 70.0, 'G_Voigt_Reuss_Hill': 67.0, 'K_Reuss': 91.0, 'K_VRH': 91.0, 'K_Voigt': 91.0, 'K_Voigt_Reuss_Hill': 91.0, 'elastic_anisotropy': 0.32, 'elastic_tensor': [[154.0, 56.0, 56.0, 0.0, 0.0, 0.0], [56.0, 170.0, 51.0, -0.0, 0.0, 0.0], [56.0, 51.0, 170.0, 0.0, 0.0, 0.0], [0.0, -0.0, 0.0, 55.0, 0.0, 0.0], [0.0, 0.0, 0.0, 0.0, 91.0, 0.0], [0.0, 0.0, 0.0, 0.0, 0.0, 91.0]], 'homogeneous_poisson': 0.2, 'poisson_ratio': 0.2, 'universal_anisotropy': 0.32, 'elastic_tensor_original': [[153.9065544515953, 52.42258015883524, 52.42258015883524, 6.8000854260954765e-06, 0.0, 0.0], [59.004168669572785, 170.28359733132223, 51.21418760211141, 0.6425976335806509, 0.0, 0.0], [59.004168669572785, 51.21418760211141, 170.28359733132223, -0.642579033707036, 0.0, 0.0], [0.0, -1.0327286876987143, 1.0327286876987143, 55.333666559179115, 0.0, 0.0], [0.0, 0.0, 0.0, 0.0, 90.85912703951234, 0.6179996277786569], [0.0, 0.0, 0.0, 0.0, -0.6179996277786569, 90.85912703951234]], 'compliance_tensor': [[7.9, -2.0, -2.0, 0.0, 0.0, 0.0], [-2.0, 7.0, -1.4, 0.0, 0.0, 0.0], [-2.0, -1.4, 7.0, -0.0, 0.0, 0.0], [0.0, 0.0, -0.0, 18.1, 0.0, 0.0], [0.0, 0.0, 0.0, 0.0, 11.0, 0.0], [0.0, 0.0, 0.0, 0.0, 0.0, 11.0]], 'warnings': [], 'nsites': 10}",0.0
85,mp-30851,Ti3Pt5,"{'Ti': 3.0, 'Pt': 5.0}",0.14887068669919765,14.802111278232545,"{'G_Reuss': 69.0, 'G_VRH': 73.0, 'G_Voigt': 76.0, 'G_Voigt_Reuss_Hill': 73.0, 'K_Reuss': 201.0, 'K_VRH': 202.0, 'K_Voigt': 202.0, 'K_Voigt_Reuss_Hill': 202.0, 'elastic_anisotropy': 0.52, 'elastic_tensor': [[256.0, 157.0, 165.0, 0.0, 0.0, 0.0], [157.0, 330.0, 125.0, 0.0, 0.0, 0.0], [165.0, 125.0, 341.0, 0.0, 0.0, 0.0], [0.0, 0.0, 0.0, 46.0, 0.0, 0.0], [0.0, 0.0, 0.0, 0.0, 86.0, 0.0], [0.0, 0.0, 0.0, 0.0, 0.0, 88.0]], 'homogeneous_poisson': 0.34, 'poisson_ratio': 0.34, 'universal_anisotropy': 0.52, 'elastic_tensor_original': [[341.2035533882815, 164.92121025784277, 125.05927134942205, 0.0, 0.0, 0.0], [164.92964765944967, 255.82078137952715, 156.55068931271887, 0.0, 0.0, 0.0], [124.41243349353559, 156.8137115382708, 330.18915368361263, 0.0, 0.0, 0.0], [0.0001849869628982616, 0.00015606310454074134, -2.8932579738919472e-05, 87.84791671748455, 0.0, 0.0], [-0.07829223194713254, -0.022099717258671086, -0.045544804930522875, 0.018671439531729533, 46.30159887699924, 0.006113029052022304], [0.001155955379748844, -0.004563444043972315, 0.013378271636984343, -0.0006561747748970272, 0.004523206959471883, 86.01053243689366]], 'compliance_tensor': [[7.0, -2.4, -2.5, 0.0, 0.0, 0.0], [-2.4, 4.3, -0.4, -0.0, 0.0, 0.0], [-2.5, -0.4, 4.3, -0.0, 0.0, 0.0], [0.0, -0.0, -0.0, 21.6, 0.0, 0.0], [0.0, 0.0, 0.0, 0.0, 11.6, 0.0], [0.0, 0.0, 0.0, 0.0, 0.0, 11.4]], 'warnings': [], 'nsites': 16}",0.0
86,mp-30852,TiPt8,"{'Ti': 1.0, 'Pt': 8.0}",0.14337611859712665,19.082725589745888,"{'G_Reuss': 83.0, 'G_VRH': 86.0, 'G_Voigt': 90.0, 'G_Voigt_Reuss_Hill': 86.0, 'K_Reuss': 242.0, 'K_VRH': 242.0, 'K_Voigt': 242.0, 'K_Voigt_Reuss_Hill': 242.0, 'elastic_anisotropy': 0.42, 'elastic_tensor': [[321.0, 204.0, 204.0, 0.0, 0.0, 0.0], [204.0, 362.0, 157.0, 0.0, 0.0, 0.0], [204.0, 157.0, 362.0, 0.0, 0.0, 0.0], [0.0, 0.0, 0.0, 65.0, 0.0, 0.0], [0.0, 0.0, 0.0, 0.0, 112.0, 0.0], [0.0, 0.0, 0.0, 0.0, 0.0, 112.0]], 'homogeneous_poisson': 0.34, 'poisson_ratio': 0.34, 'universal_anisotropy': 0.42, 'elastic_tensor_original': [[361.8993769578648, 157.0206427847131, 204.49359649836944, 0.0, 0.0, 0.0], [157.02158789639606, 361.899663716725, 204.49455231518172, 0.0, 0.0, 0.0], [203.17224903004367, 203.17224903004367, 321.271615542817, 0.0, 0.0, 0.0], [0.0034551068290829706, 0.003176593482656253, -0.003911420183862406, 111.60934075310355, 0.0, 0.0], [0.0033988034931022692, 0.0035847735018430535, -0.0037804535110416513, 0.0, 111.6094215464407, 0.0], [5.1290000811348024e-05, -1.1546666849259271e-05, 6.241333432194739e-05, 0.0, 0.0, 64.63839718925635]], 'compliance_tensor': [[6.2, -2.4, -2.4, -0.0, -0.0, 0.0], [-2.4, 4.4, -0.5, 0.0, 0.0, -0.0], [-2.4, -0.5, 4.4, -0.0, 0.0, 0.0], [-0.0, 0.0, -0.0, 15.5, -0.0, 0.0], [-0.0, 0.0, 0.0, -0.0, 9.0, -0.0], [0.0, -0.0, 0.0, 0.0, -0.0, 9.0]], 'warnings': [], 'nsites': 9}",0.0
87,mp-30875,Ti2Sn,"{'Ti': 2.0, 'Sn': 1.0}",0.13715709806737453,6.451610572115688,"{'G_Reuss': 58.0, 'G_VRH': 60.0, 'G_Voigt': 63.0, 'G_Voigt_Reuss_Hill': 60.0, 'K_Reuss': 115.0, 'K_VRH': 115.0, 'K_Voigt': 115.0, 'K_Voigt_Reuss_Hill': 115.0, 'elastic_anisotropy': 0.44, 'elastic_tensor': [[208.0, 101.0, 43.0, 0.0, 0.0, 0.0], [101.0, 208.0, 43.0, 0.0, 0.0, 0.0], [43.0, 43.0, 250.0, 0.0, 0.0, 0.0], [0.0, 0.0, 0.0, 50.0, 0.0, 0.0], [0.0, 0.0, 0.0, 0.0, 50.0, 0.0], [0.0, 0.0, 0.0, 0.0, 0.0, 54.0]], 'homogeneous_poisson': 0.28, 'poisson_ratio': 0.28, 'universal_anisotropy': 0.44, 'elastic_tensor_original': [[210.03328130327893, 98.85630589097597, 42.84368030803676, 0.0, 0.0, 0.0], [99.18088148993839, 210.13874658520547, 42.50357405328934, 0.0, 0.0, 0.0], [42.662448523209285, 42.66245992206769, 249.78316410725515, 0.0, 0.0, 0.0], [-9.050336834045656e-05, -0.00024805676261664103, -0.00022822342161133227, 49.65692377085728, 0.0, 0.0], [1.4429795243631402e-05, 7.781349484265308e-05, 0.00022272307704502393, 1.9999898489237602e-08, 49.5531540281871, 0.0], [0.12175731587729888, -0.10272219502108419, 0.040190022720178534, 0.0, 0.0, 52.24820727989819]], 'compliance_tensor': [[6.3, -2.9, -0.6, -0.0, -0.0, -0.0], [-2.9, 6.3, -0.6, -0.0, 0.0, -0.0], [-0.6, -0.6, 4.2, 0.0, 0.0, 0.0], [-0.0, 0.0, 0.0, 20.2, -0.0, 0.0], [-0.0, 0.0, 0.0, -0.0, 20.2, -0.0], [-0.0, -0.0, 0.0, 0.0, 0.0, 18.6]], 'warnings': [], 'nsites': 6}",0.0
88,mp-31214,Ti3P,"{'Ti': 3.0, 'P': 1.0}",0.13711041039461552,4.698347380988184,,0.0
89,mp-492,TiN,"{'Ti': 1.0, 'N': 1.0}",0.1889358234178382,5.340297397189084,"{'G_Reuss': 177.0, 'G_VRH': 180.0, 'G_Voigt': 184.0, 'G_Voigt_Reuss_Hill': 180.0, 'K_Reuss': 259.0, 'K_VRH': 259.0, 'K_Voigt': 259.0, 'K_Voigt_Reuss_Hill': 259.0, 'elastic_anisotropy': 0.19, 'elastic_tensor': [[564.0, 106.0, 106.0, 0.0, 0.0, 0.0], [106.0, 564.0, 106.0, 0.0, 0.0, 0.0], [106.0, 106.0, 564.0, 0.0, 0.0, 0.0], [0.0, 0.0, 0.0, 154.0, 0.0, 0.0], [0.0, 0.0, 0.0, 0.0, 154.0, 0.0], [0.0, 0.0, 0.0, 0.0, 0.0, 154.0]], 'homogeneous_poisson': 0.22, 'poisson_ratio': 0.22, 'universal_anisotropy': 0.19, 'elastic_tensor_original': [[564.076529595347, 106.46538833401104, 106.46538833401104, 0.0, 0.0, 0.0], [106.44370018991627, 564.1223869228995, 106.44370018991627, 0.0, 0.0, 0.0], [106.45454426196366, 106.45454426196366, 564.0994582591233, 0.0, 0.0, 0.0], [0.0, 0.0, 0.0, 153.89318058845274, 0.0, 0.0], [0.0, 0.0, 0.0, 0.0, 153.89318058845274, 0.0], [0.0, 0.0, 0.0, 0.0, 0.0, 153.89318058845274]], 'compliance_tensor': [[1.9, -0.3, -0.3, 0.0, -0.0, 0.0], [-0.3, 1.9, -0.3, -0.0, 0.0, -0.0], [-0.3, -0.3, 1.9, -0.0, -0.0, 0.0], [0.0, -0.0, -0.0, 6.5, 0.0, -0.0], [-0.0, 0.0, -0.0, 0.0, 6.5, -0.0], [0.0, -0.0, 0.0, -0.0, -0.0, 6.5]], 'warnings': [], 'nsites': 2}",0.0
90,mp-505527,Ti5Si4,"{'Ti': 5.0, 'Si': 4.0}",0.1134867373079618,4.25473535677054,"{'G_Reuss': 94.0, 'G_VRH': 95.0, 'G_Voigt': 95.0, 'G_Voigt_Reuss_Hill': 95.0, 'K_Reuss': 142.0, 'K_VRH': 142.0, 'K_Voigt': 142.0, 'K_Voigt_Reuss_Hill': 142.0, 'elastic_anisotropy': 0.06, 'elastic_tensor': [[272.0, 86.0, 70.0, 0.0, 0.0, 0.0], [86.0, 272.0, 70.0, 0.0, 0.0, 0.0], [70.0, 70.0, 284.0, 0.0, 0.0, 0.0], [0.0, 0.0, 0.0, 84.0, 0.0, 0.0], [0.0, 0.0, 0.0, 0.0, 84.0, 0.0], [0.0, 0.0, 0.0, 0.0, 0.0, 107.0]], 'homogeneous_poisson': 0.23, 'poisson_ratio': 0.23, 'universal_anisotropy': 0.06, 'elastic_tensor_original': [[272.05005618071397, 85.58027417524198, 69.95072380224127, 0.0, 0.0, 0.0], [85.46640859744937, 272.11426858875126, 69.85895301614863, 0.0, 0.0, 0.0], [70.1263805473845, 70.1263805473845, 284.3874253790586, 0.0, 0.0, 0.0], [-0.00013614021548592786, -2.054317846525672e-05, -0.00018979961476145682, 84.14128315809398, 0.0, 0.0], [0.00034779012943155993, -2.759715141412573e-05, -0.00022229077516105797, 0.0, 84.14203157875262, 0.0], [-0.0035292115122994025, -0.00025581961089784247, -0.0028303449058277724, 0.0, 0.0, 106.50403119504266]], 'compliance_tensor': [[4.2, -1.1, -0.8, 0.0, -0.0, 0.0], [-1.1, 4.2, -0.8, 0.0, 0.0, -0.0], [-0.8, -0.8, 3.9, 0.0, 0.0, 0.0], [0.0, 0.0, 0.0, 11.9, 0.0, 0.0], [-0.0, 0.0, 0.0, 0.0, 11.9, -0.0], [0.0, -0.0, 0.0, 0.0, -0.0, 9.4]], 'warnings': [], 'nsites': 36}",0.0
91,mp-518,Ti5Re24,"{'Ti': 5.0, 'Re': 24.0}",0.10963025048091839,17.385690119376484,,0.0
92,mp-540671,Ti7Cl16,"{'Ti': 7.0, 'Cl': 16.0}",0.09918194434602307,2.977033294538724,,0.0
93,mp-540672,Ti7Br16,"{'Ti': 7.0, 'Br': 16.0}",0.10681790836507081,4.459606370693201,,0.0
94,mp-541013,TiI4,"{'Ti': 1.0, 'I': 4.0}",0.1760162964046736,4.3668690052068415,"{'G_Reuss': 0.0, 'G_VRH': 1.0, 'G_Voigt': 2.0, 'G_Voigt_Reuss_Hill': 1.0, 'K_Reuss': 1.0, 'K_VRH': 2.0, 'K_Voigt': 3.0, 'K_Voigt_Reuss_Hill': 2.0, 'elastic_anisotropy': 51.13, 'elastic_tensor': [[2.0, -1.0, 0.0, 0.0, 0.0, 0.0], [-1.0, 3.0, 2.0, 0.0, -0.0, 0.0], [0.0, 2.0, 22.0, 0.0, 0.0, 0.0], [0.0, 0.0, 0.0, 2.0, 0.0, 0.0], [0.0, -0.0, 0.0, 0.0, 0.0, 0.0], [0.0, 0.0, 0.0, 0.0, 0.0, 0.0]], 'homogeneous_poisson': 0.24, 'poisson_ratio': 0.24, 'universal_anisotropy': 51.13, 'elastic_tensor_original': [[3.0394802472158835, 0.19562254472726154, 2.1046315479117768, 1.0519345383057543, 0.0, 0.0], [-1.8702969724007443, 2.375732376689602, 0.48659494578417634, 0.12623109095126028, 0.0, 0.0], [1.4442390239823857, 0.4041774965926989, 22.036381452485497, 0.2882355210219426, 0.0, 0.0], [0.05010914931717457, -0.15972874819900384, 0.4568882873445414, 0.32532130470509746, 0.0, 0.0], [0.009676701946360057, 0.0026044196267053887, -0.0184317940248155, -0.012785414834117777, 2.3945556034521323, -0.019337797228290272], [-0.0055169526471739025, -0.06275352552849552, -0.025487643496694558, -0.04236776473059832, -0.010075485413549348, 0.060584315798286416]], 'compliance_tensor': [[507.2, 219.9, -29.0, 0.0, 363.8, 0.0], [219.9, 570.8, -53.2, 0.0, 906.5, 0.0], [-29.0, -53.2, 50.5, 0.0, -93.0, 0.0], [0.0, 0.0, 0.0, 429.2, 0.0, -431.9], [363.8, 906.5, -93.0, 0.0, 4579.2, 0.0], [0.0, 0.0, 0.0, -431.9, 0.0, 16519.6]], 'warnings': ['One or more K, G below 2 GPa'], 'nsites': 10}",0.0
95,mp-544,Ti3Ir,"{'Ti': 3.0, 'Ir': 1.0}",0.15267440227901116,8.833383915301757,"{'G_Reuss': 13.0, 'G_VRH': 13.0, 'G_Voigt': 14.0, 'G_Voigt_Reuss_Hill': 13.0, 'K_Reuss': 169.0, 'K_VRH': 169.0, 'K_Voigt': 169.0, 'K_Voigt_Reuss_Hill': 169.0, 'elastic_anisotropy': 0.42, 'elastic_tensor': [[181.0, 162.0, 162.0, 0.0, 0.0, 0.0], [162.0, 181.0, 162.0, 0.0, 0.0, 0.0], [162.0, 162.0, 181.0, 0.0, 0.0, 0.0], [0.0, 0.0, 0.0, 17.0, 0.0, 0.0], [0.0, 0.0, 0.0, 0.0, 17.0, 0.0], [0.0, 0.0, 0.0, 0.0, 0.0, 17.0]], 'homogeneous_poisson': 0.46, 'poisson_ratio': 0.46, 'universal_anisotropy': 0.42, 'elastic_tensor_original': [[180.9309056387823, 162.3364743472961, 162.3364743472961, 0.0, 0.0, 0.0], [162.33630124359527, 180.93115235895962, 162.33630124359527, 0.0, 0.0, 0.0], [162.33778573074494, 162.33778573074494, 180.93172831836893, 0.0, 0.0, 0.0], [-0.00022424690473511007, -0.00014899015816992404, -1.3583347753443929e-05, 16.608799178725548, 0.0, 0.0], [-0.00018531019672731177, -0.00011562012274653475, -0.00028397696813955964, 0.0, 16.608903398836194, 0.0], [-0.00040521376351220184, -0.0006003673040224748, -4.391671329098836e-05, 0.0, 0.0, 16.608787168712798]], 'compliance_tensor': [[36.5, -17.3, -17.3, -0.0, 0.0, 0.0], [-17.3, 36.5, -17.3, 0.0, -0.0, 0.0], [-17.3, -17.3, 36.5, 0.0, 0.0, -0.0], [-0.0, 0.0, 0.0, 60.2, -0.0, -0.0], [0.0, -0.0, 0.0, -0.0, 60.2, -0.0], [0.0, 0.0, -0.0, -0.0, -0.0, 60.2]], 'warnings': [], 'nsites': 8}",0.0