,mp_id,Formula,Composition,IPF,Density,Elastic_Tensor,E_above_Hull
421,mp-29091,Ti(CuS)4,"{'Ti': 1.0, 'Cu': 4.0, 'S': 4.0}",0.14790991515052387,4.546919933889982,"{'G_Reuss': 37.0, 'G_VRH': 37.0, 'G_Voigt': 38.0, 'G_Voigt_Reuss_Hill': 37.0, 'K_Reuss': 76.0, 'K_VRH': 76.0, 'K_Voigt': 76.0, 'K_Voigt_Reuss_Hill': 76.0, 'elastic_anisotropy': 0.14, 'elastic_tensor': [[127.0, 52.0, 56.0, 0.0, 0.0, 0.0], [52.0, 127.0, 56.0, 0.0, 0.0, 0.0], [56.0, 56.0, 107.0, 0.0, 0.0, 0.0], [0.0, 0.0, 0.0, 38.0, 0.0, 0.0], [0.0, 0.0, 0.0, 0.0, 38.0, 0.0], [0.0, 0.0, 0.0, 0.0, 0.0, 47.0]], 'homogeneous_poisson': 0.29, 'poisson_ratio': 0.29, 'universal_anisotropy': 0.14, 'elastic_tensor_original': [[127.025777184609, 52.14854617828477, 55.18046269222109, 0.0, 0.0, 0.0], [52.14980687471886, 127.02695423519003, 55.181700672261925, 0.0, 0.0, 0.0], [55.83968571921321, 55.83968571921321, 106.8872153860131, 0.0, 0.0, 0.0], [-0.021662501432677207, -0.02659611848916899, -0.031773034712004954, 37.66300581780506, 0.0, 0.0], [-0.05401471076418194, -0.04997806712958124, -0.04222333131898515, 0.0, 37.647528373971184, 0.0], [-0.0005703666840205998, -0.0007909133898671678, -0.0007603934042634614, 0.0, 0.0, 47.121833824683925]], 'compliance_tensor': [[10.8, -2.6, -4.3, 0.0, 0.0, 0.0], [-2.6, 10.8, -4.3, 0.0, -0.0, 0.0], [-4.3, -4.3, 13.8, 0.0, 0.0, 0.0], [0.0, 0.0, 0.0, 26.6, 0.0, 0.0], [0.0, -0.0, 0.0, 0.0, 26.6, 0.0], [0.0, 0.0, 0.0, 0.0, 0.0, 21.2]], 'warnings': [], 'nsites': 9}",0.0
422,mp-30280,K4(TiTe3)3,"{'K': 4.0, 'Ti': 3.0, 'Te': 9.0}",0.2639511194737571,4.284751113747484,,0.0
423,mp-30657,TiGaNi2,"{'Ti': 1.0, 'Ga': 1.0, 'Ni': 2.0}",0.1533816924200279,7.652008774211659,"{'G_Reuss': 22.0, 'G_VRH': 40.0, 'G_Voigt': 58.0, 'G_Voigt_Reuss_Hill': 40.0, 'K_Reuss': 166.0, 'K_VRH': 166.0, 'K_Voigt': 166.0, 'K_Voigt_Reuss_Hill': 166.0, 'elastic_anisotropy': 7.98, 'elastic_tensor': [[180.0, 159.0, 159.0, 0.0, 0.0, 0.0], [159.0, 180.0, 159.0, 0.0, 0.0, 0.0], [159.0, 159.0, 180.0, 0.0, 0.0, 0.0], [0.0, 0.0, 0.0, 90.0, 0.0, 0.0], [0.0, 0.0, 0.0, 0.0, 90.0, 0.0], [0.0, 0.0, 0.0, 0.0, 0.0, 90.0]], 'homogeneous_poisson': 0.39, 'poisson_ratio': 0.39, 'universal_anisotropy': 7.98, 'elastic_tensor_original': [[180.02255147821344, 158.87790846202324, 158.87790846202324, 0.0, 0.0, 0.0], [158.88680279639084, 180.03168588981458, 158.88680279639084, 0.0, 0.0, 0.0], [158.8683761112989, 158.8683761112989, 180.0132610916969, 0.0, 0.0, 0.0], [-8.870304949029956e-05, -7.90697531417627e-05, -7.020308251957079e-05, 90.19319375901301, 0.0, 0.0], [-4.226487034163107e-06, 1.5413504216526367e-05, -2.0396486197498158e-05, 0.0, 90.19332571237638, 0.0], [-0.00020896030242516892, -0.0002056303048785798, -0.000212436978596011, 0.0, 0.0, 90.19324273879477]], 'compliance_tensor': [[32.2, -15.1, -15.1, -0.0, 0.0, 0.0], [-15.1, 32.2, -15.1, 0.0, -0.0, 0.0], [-15.1, -15.1, 32.2, 0.0, 0.0, -0.0], [-0.0, 0.0, 0.0, 11.1, -0.0, -0.0], [0.0, -0.0, 0.0, -0.0, 11.1, -0.0], [0.0, 0.0, -0.0, -0.0, -0.0, 11.1]], 'warnings': [], 'nsites': 4}",0.0
424,mp-30998,Ti(NO3)4,"{'Ti': 1.0, 'N': 4.0, 'O': 12.0}",0.4342569689336654,1.987980008677436,,0.0
425,mp-3871,Ti2SnC,"{'Ti': 2.0, 'Sn': 1.0, 'C': 1.0}",0.12759403292901528,6.244640756678336,"{'G_Reuss': 92.0, 'G_VRH': 92.0, 'G_Voigt': 92.0, 'G_Voigt_Reuss_Hill': 92.0, 'K_Reuss': 135.0, 'K_VRH': 135.0, 'K_Voigt': 135.0, 'K_Voigt_Reuss_Hill': 135.0, 'elastic_anisotropy': 0.01, 'elastic_tensor': [[262.0, 81.0, 69.0, 0.0, 0.0, 0.0], [81.0, 262.0, 69.0, 0.0, 0.0, 0.0], [69.0, 69.0, 258.0, 0.0, 0.0, 0.0], [0.0, 0.0, 0.0, 91.0, 0.0, 0.0], [0.0, 0.0, 0.0, 0.0, 91.0, 0.0], [0.0, 0.0, 0.0, 0.0, 0.0, 90.0]], 'homogeneous_poisson': 0.22, 'poisson_ratio': 0.22, 'universal_anisotropy': 0.01, 'elastic_tensor_original': [[263.0884860067147, 79.90674205502951, 68.74303275244685, 0.0, 0.0, 8.674482348625758e-06], [79.81756167157423, 261.87393821803863, 68.20126873717616, 0.0, 0.0, 9.525289542310845e-05], [69.55849910876557, 69.5584685711078, 258.1810344364881, 0.0, 0.0, 2.5278058185117038e-05], [0.00012048648277916316, 3.102328598685572e-05, -9.831651661213613e-05, 90.79317303690229, 3.2999949635032096e-05, 0.0], [-7.925011151469025e-05, -0.000119533501532988, -6.455342416817482e-05, 0.0, 91.03028618266173, 0.0], [0.0732313755411997, -0.041238012309427655, 0.0827226683933557, 0.0, 0.0, 89.57543413277568]], 'compliance_tensor': [[4.4, -1.1, -0.9, 0.0, -0.0, -0.0], [-1.1, 4.4, -0.9, -0.0, 0.0, -0.0], [-0.9, -0.9, 4.3, -0.0, -0.0, 0.0], [-0.0, -0.0, -0.0, 11.0, -0.0, 0.0], [-0.0, 0.0, 0.0, -0.0, 11.0, 0.0], [-0.0, -0.0, 0.0, -0.0, 0.0, 11.1]], 'warnings': [], 'nsites': 8}",0.0
426,mp-4771,TiAlCu2,"{'Ti': 1.0, 'Al': 1.0, 'Cu': 2.0}",0.15564081865263307,6.1437518525598,"{'G_Reuss': 53.0, 'G_VRH': 62.0, 'G_Voigt': 72.0, 'G_Voigt_Reuss_Hill': 62.0, 'K_Reuss': 134.0, 'K_VRH': 134.0, 'K_Voigt': 134.0, 'K_Voigt_Reuss_Hill': 134.0, 'elastic_anisotropy': 1.84, 'elastic_tensor': [[175.0, 114.0, 114.0, 0.0, 0.0, 0.0], [114.0, 175.0, 114.0, 0.0, 0.0, 0.0], [114.0, 114.0, 175.0, 0.0, 0.0, 0.0], [0.0, 0.0, 0.0, 100.0, 0.0, 0.0], [0.0, 0.0, 0.0, 0.0, 100.0, 0.0], [0.0, 0.0, 0.0, 0.0, 0.0, 100.0]], 'homogeneous_poisson': 0.3, 'poisson_ratio': 0.3, 'universal_anisotropy': 1.84, 'elastic_tensor_original': [[175.95709801721873, 114.80737530418772, 114.80737530418772, 0.0, 0.0, 0.0], [112.9305435677939, 175.14459347723962, 112.9305435677939, 0.0, 0.0, 0.0], [112.94402706947163, 112.94402706947163, 175.155902350222, 0.0, 0.0, 0.0], [0.00094936599294407, 0.0013195293619652686, 0.0010354843786644272, 99.65888881898182, 0.0, 0.0], [-0.0019066121591082847, -0.0022736985870579194, -0.00190216872745897, 0.0, 99.65788026291065, 0.0], [-1.343112883053956e-06, -7.099969409838702e-05, 8.99257414095115e-05, 0.0, 0.0, 99.65948113805199]], 'compliance_tensor': [[11.6, -4.6, -4.6, 0.0, -0.0, 0.0], [-4.6, 11.6, -4.6, 0.0, 0.0, -0.0], [-4.6, -4.6, 11.6, -0.0, 0.0, 0.0], [0.0, 0.0, -0.0, 10.0, -0.0, -0.0], [-0.0, 0.0, 0.0, -0.0, 10.0, -0.0], [0.0, -0.0, 0.0, -0.0, -0.0, 10.0]], 'warnings': [], 'nsites': 4}",0.0
427,mp-504701,CsTiF4,"{'Cs': 1.0, 'Ti': 1.0, 'F': 4.0}",0.3108096223477736,3.9799243314493,,0.0
428,mp-510084,Ho2Ti3Si4,"{'Ho': 2.0, 'Ti': 3.0, 'Si': 4.0}",0.12377473704134721,6.064976354963192,,0.0
429,mp-5403,Rb2TiO3,"{'Rb': 2.0, 'Ti': 1.0, 'O': 3.0}",0.5284580930601114,3.544837225154337,,0.0
430,mp-540939,Ti(TlS)4,"{'Ti': 1.0, 'Tl': 4.0, 'S': 4.0}",0.1943778940254609,5.978414997038922,,0.0
431,mp-541735,K4Ti3S14,"{'K': 4.0, 'Ti': 3.0, 'S': 14.0}",0.2022552317831405,2.3602123291168438,,0.0
432,mp-5449,Na2Ti6O13,"{'Na': 2.0, 'Ti': 6.0, 'O': 13.0}",0.521823212014069,3.409636412451888,,0.0
433,mp-558371,La5Ti5O17,"{'La': 5.0, 'Ti': 5.0, 'O': 17.0}",0.543698529606039,5.757177416861475,,0.0
434,mp-559283,TiSO5,"{'Ti': 1.0, 'S': 1.0, 'O': 5.0}",0.4855492347587865,2.7239578942125258,,0.0
435,mp-559768,La2Ti2O7,"{'La': 2.0, 'Ti': 2.0, 'O': 7.0}",0.5406471997455303,5.637935854614078,,0.4152685227349906
436,mp-567387,Ce(TiAl10)2,"{'Ce': 1.0, 'Ti': 2.0, 'Al': 20.0}",0.09125605689377862,3.2446736175630075,,0.0
437,mp-568934,Ti4AlN3,"{'Ti': 4.0, 'Al': 1.0, 'N': 3.0}",0.1619712679011854,4.739636001981362,,0.0
438,mp-570271,Ti4FeBi2,"{'Ti': 4.0, 'Fe': 1.0, 'Bi': 2.0}",0.16040794588278082,7.96999424872082,,0.0
439,mp-571126,Ti2BRh6,"{'Ti': 2.0, 'B': 1.0, 'Rh': 6.0}",0.12791249189738124,9.69818028407914,"{'G_Reuss': 112.0, 'G_VRH': 113.0, 'G_Voigt': 113.0, 'G_Voigt_Reuss_Hill': 113.0, 'K_Reuss': 228.0, 'K_VRH': 228.0, 'K_Voigt': 228.0, 'K_Voigt_Reuss_Hill': 228.0, 'elastic_anisotropy': 0.02, 'elastic_tensor': [[366.0, 158.0, 158.0, 0.0, 0.0, 0.0], [158.0, 366.0, 158.0, 0.0, 0.0, 0.0], [158.0, 158.0, 366.0, 0.0, 0.0, 0.0], [0.0, 0.0, 0.0, 119.0, 0.0, 0.0], [0.0, 0.0, 0.0, 0.0, 119.0, 0.0], [0.0, 0.0, 0.0, 0.0, 0.0, 119.0]], 'homogeneous_poisson': 0.29, 'poisson_ratio': 0.29, 'universal_anisotropy': 0.02, 'elastic_tensor_original': [[367.38505882191834, 158.97735281810168, 158.97735281810168, 0.0, 0.0, 0.0], [157.84399676164736, 366.98003196228564, 157.84382646941745, 3.144102088533538e-05, -0.00013601832512450288, -7.979954539425222e-07], [158.6137199486114, 158.61387799161108, 364.83232868535146, 0.00013246724535445864, 4.377005064874734e-05, -1.4284118625571145e-05], [0.08091563155576488, 0.06474470803272483, 0.05884171233712943, 118.71955932975935, 0.0, 0.0], [-0.04249754830889495, 0.007377887365651069, -0.039467434149811756, 0.0, 118.73290213203025, 0.0], [0.07738920988913486, 0.08041153357079892, 0.047795439986605306, 0.0, 0.0, 118.69635191357821]], 'compliance_tensor': [[3.7, -1.1, -1.1, -0.0, 0.0, 0.0], [-1.1, 3.7, -1.1, 0.0, -0.0, 0.0], [-1.1, -1.1, 3.7, 0.0, 0.0, -0.0], [-0.0, 0.0, 0.0, 8.4, -0.0, -0.0], [0.0, -0.0, 0.0, -0.0, 8.4, -0.0], [0.0, 0.0, -0.0, -0.0, -0.0, 8.4]], 'warnings': [], 'nsites': 9}",0.0
440,mp-5967,TiCoSb,"{'Ti': 1.0, 'Co': 1.0, 'Sb': 1.0}",0.1344872726984684,7.4161166432836785,"{'G_Reuss': 75.0, 'G_VRH': 75.0, 'G_Voigt': 76.0, 'G_Voigt_Reuss_Hill': 75.0, 'K_Reuss': 142.0, 'K_VRH': 142.0, 'K_Voigt': 142.0, 'K_Voigt_Reuss_Hill': 142.0, 'elastic_anisotropy': 0.08, 'elastic_tensor': [[258.0, 83.0, 83.0, 0.0, 0.0, 0.0], [83.0, 258.0, 83.0, 0.0, 0.0, 0.0], [83.0, 83.0, 258.0, 0.0, 0.0, 0.0], [0.0, 0.0, 0.0, 68.0, 0.0, 0.0], [0.0, 0.0, 0.0, 0.0, 68.0, 0.0], [0.0, 0.0, 0.0, 0.0, 0.0, 68.0]], 'homogeneous_poisson': 0.27, 'poisson_ratio': 0.27, 'universal_anisotropy': 0.08, 'elastic_tensor_original': [[258.13810610087376, 83.36017539154412, 83.36017539154412, 0.0, 0.0, 0.0], [83.35242008533565, 258.13037399973075, 83.35242008533565, 0.0, 0.0, 0.0], [83.3525787686328, 83.3525787686328, 258.1307026950553, 0.0, 0.0, 0.0], [-0.00020129612089362715, -0.00020147945549374397, -0.0002011794562002902, 67.84154912193169, 0.0, 0.0], [-8.458650174775289e-05, -8.385983086223669e-05, -8.51164971042852e-05, 0.0, 67.84154296528797, 0.0], [0.0003184892106508069, 0.00031905921081266887, 0.00031915254378516534, 0.0, 0.0, 67.84153415863592]], 'compliance_tensor': [[4.6, -1.1, -1.1, 0.0, -0.0, 0.0], [-1.1, 4.6, -1.1, 0.0, 0.0, -0.0], [-1.1, -1.1, 4.6, -0.0, 0.0, 0.0], [0.0, 0.0, -0.0, 14.7, -0.0, -0.0], [-0.0, 0.0, 0.0, -0.0, 14.7, -0.0], [0.0, -0.0, 0.0, -0.0, -0.0, 14.7]], 'warnings': [], 'nsites': 3}",0.0
441,mp-623024,TiCdF6,"{'Ti': 1.0, 'Cd': 1.0, 'F': 6.0}",0.13988173817438185,3.7878369425499465,"{'G_Reuss': 10.0, 'G_VRH': 15.0, 'G_Voigt': 19.0, 'G_Voigt_Reuss_Hill': 15.0, 'K_Reuss': 8.0, 'K_VRH': 10.0, 'K_Voigt': 12.0, 'K_Voigt_Reuss_Hill': 10.0, 'elastic_anisotropy': 4.92, 'elastic_tensor': [[28.0, -12.0, 9.0, -14.0, -5.0, 0.0], [-12.0, 28.0, 9.0, 14.0, 5.0, 0.0], [9.0, 9.0, 38.0, 0.0, 0.0, 0.0], [-14.0, 14.0, 0.0, 24.0, 0.0, 5.0], [-5.0, 5.0, 0.0, 0.0, 24.0, -14.0], [0.0, 0.0, 0.0, 5.0, -14.0, 20.0]], 'homogeneous_poisson': 0.0, 'poisson_ratio': 0.0, 'universal_anisotropy': 4.92, 'elastic_tensor_original': [[28.253487715415393, -12.970078738873278, 9.75079452400739, 16.240805355531446, 8.008288670024069, 0.3278705539357801], [-12.078067266484494, 29.463927885980453, 9.603686832222822, -15.801359394272309, -5.967362838673661, 0.2474859820835155], [8.455298923402115, 8.455301520475352, 38.35352982463331, 0.0, 0.0, -4.952436012065594e-07], [13.189011074569946, -13.172882020403522, 0.9728058648574608, 23.93304592782903, -0.14183980444552416, -4.845154399963222], [4.558609281004175, -4.423078182755664, 0.27307227121699695, -0.24865284720965067, 23.96934320715231, 13.248295009097635], [0.524246205027267, 0.8158881495520872, 0.41063990266363465, -4.313708216228578, 11.908885220845665, 18.898275722306824]], 'compliance_tensor': [[64.3, 18.7, -19.6, 25.9, 9.8, 0.0], [18.7, 64.3, -19.6, -25.9, -9.8, 0.0], [-19.6, -19.6, 35.3, -0.0, 0.0, -0.0], [25.9, -25.9, 0.0, 75.3, 0.0, -19.6], [9.8, -9.8, 0.0, 0.0, 75.3, 51.7], [0.0, 0.0, -0.0, -19.6, 51.7, 91.1]], 'warnings': [], 'nsites': 8}",0.0
442,mp-636320,TiGaFe2,"{'Ti': 1.0, 'Ga': 1.0, 'Fe': 2.0}",0.19699101657735282,7.798866002382084,"{'G_Reuss': 97.0, 'G_VRH': 100.0, 'G_Voigt': 103.0, 'G_Voigt_Reuss_Hill': 100.0, 'K_Reuss': 190.0, 'K_VRH': 190.0, 'K_Voigt': 190.0, 'K_Voigt_Reuss_Hill': 190.0, 'elastic_anisotropy': 0.32, 'elastic_tensor': [[288.0, 141.0, 141.0, 0.0, 0.0, 0.0], [141.0, 288.0, 141.0, 0.0, 0.0, 0.0], [141.0, 141.0, 288.0, 0.0, 0.0, 0.0], [0.0, 0.0, 0.0, 123.0, 0.0, 0.0], [0.0, 0.0, 0.0, 0.0, 123.0, 0.0], [0.0, 0.0, 0.0, 0.0, 0.0, 123.0]], 'homogeneous_poisson': 0.28, 'poisson_ratio': 0.28, 'universal_anisotropy': 0.32, 'elastic_tensor_original': [[285.9597739426787, 138.6951547089835, 138.69510710950084, 0.0, 0.0, 0.0], [141.55207444945597, 288.813006731965, 141.55202593296966, 0.0, 0.0, 0.0], [141.54478277853713, 141.54478277853713, 288.80517222063787, 0.0, 0.0, 0.0], [0.0001671439887012488, 0.0001744304351376065, 0.0001992725565789295, 122.93797698794816, 0.0, 0.0], [-6.500608983980992e-05, -2.169525216946297e-05, -5.5262462414860763e-05, 0.0, 122.93801568602242, 0.0], [0.00025483685449749396, 0.00026057244742524425, 0.0003225762305925857, 0.0, 0.0, 122.93822902292514]], 'compliance_tensor': [[5.1, -1.7, -1.7, -0.0, -0.0, 0.0], [-1.7, 5.1, -1.7, 0.0, 0.0, 0.0], [-1.7, -1.7, 5.1, 0.0, -0.0, -0.0], [-0.0, 0.0, 0.0, 8.1, 0.0, -0.0], [-0.0, 0.0, -0.0, 0.0, 8.1, 0.0], [0.0, 0.0, -0.0, -0.0, 0.0, 8.1]], 'warnings': [], 'nsites': 4}",0.0
443,mp-654139,Nd2Ti4O11,"{'Nd': 2.0, 'Ti': 4.0, 'O': 11.0}",0.5617124269371286,5.10086006857692,,0.0
444,mp-680170,Cs2Ti2S9,"{'Cs': 2.0, 'Ti': 2.0, 'S': 9.0}",0.21298157630996786,2.854720520869517,,0.0
445,mp-685194,Li4Ti5O12,"{'Li': 4.0, 'Ti': 5.0, 'O': 12.0}",0.5579527275656979,3.383782954271181,"{'G_Reuss': 56.0, 'G_VRH': 60.0, 'G_Voigt': 64.0, 'G_Voigt_Reuss_Hill': 60.0, 'K_Reuss': 106.0, 'K_VRH': 108.0, 'K_Voigt': 110.0, 'K_Voigt_Reuss_Hill': 108.0, 'elastic_anisotropy': 0.78, 'elastic_tensor': [[154.0, 75.0, 78.0, 0.0, -19.0, 0.0], [75.0, 169.0, 94.0, 0.0, -0.0, 0.0], [78.0, 94.0, 169.0, 0.0, -22.0, 0.0], [0.0, 0.0, 0.0, 87.0, 0.0, -4.0], [-19.0, -0.0, -22.0, 0.0, 79.0, 0.0], [0.0, 0.0, 0.0, -4.0, 0.0, 74.0]], 'homogeneous_poisson': 0.27, 'poisson_ratio': 0.27, 'universal_anisotropy': 0.78, 'elastic_tensor_original': [[169.38645477240368, 93.77246012224523, 75.28367002108018, -0.3028231490382546, 0.0, 0.0], [93.88868593393015, 169.02421328641708, 77.77147702243172, -22.07183848413011, 0.0, 0.0], [75.62242947561427, 78.38691663352505, 153.6799531354338, -19.178106727692395, 0.0, 0.0], [-0.5385762668242823, -21.89515042294163, -18.815583934504332, 78.732382697975, 0.0, 0.0], [0.022302021342703635, 0.015211776140109575, 0.04550371631658266, -0.0061761061013909935, 73.71029036436467, -3.5638402266889884], [-9.166649394863157e-06, -7.966984988769635e-05, -0.00013472307949076288, 2.9413277913369473e-05, -3.5745476776749614, 87.17344319001492]], 'compliance_tensor': [[9.4, -2.7, -2.6, 0.0, 1.5, 0.0], [-2.7, 9.4, -4.2, 0.0, -1.8, 0.0], [-2.6, -4.2, 9.7, 0.0, 2.1, 0.0], [0.0, 0.0, 0.0, 11.5, 0.0, 0.6], [1.5, -1.8, 2.1, 0.0, 13.6, 0.0], [0.0, 0.0, 0.0, 0.6, 0.0, 13.6]], 'warnings': [], 'nsites': 42}",0.0
446,mp-685300,Ti4P8S29,"{'Ti': 4.0, 'P': 8.0, 'S': 29.0}",0.08627090369366142,1.9870663748992201,,0.654402896341999
447,mp-686129,Li5TiN3,"{'Li': 5.0, 'Ti': 1.0, 'N': 3.0}",0.2403987083512616,2.3686196314945436,,0.0
448,mp-690799,Zr(TiH2)2,"{'Zr': 1.0, 'Ti': 2.0, 'H': 4.0}",0.11575286243427034,4.682760958924525,,0.0
449,mp-697075,Ti3Zn3N,"{'Ti': 3.0, 'Zn': 3.0, 'N': 1.0}",0.1821300996227233,6.159360587749086,,0.0
450,mp-754225,YbTiO3,"{'Yb': 1.0, 'Ti': 1.0, 'O': 3.0}",0.59293528379844,8.008386988941393,,0.0
451,mp-757266,BaTi7O14,"{'Ba': 1.0, 'Ti': 7.0, 'O': 14.0}",0.5462898049686494,4.231830735613994,,0.8863507610978871
452,mp-765472,KTi6O12,"{'K': 1.0, 'Ti': 6.0, 'O': 12.0}",0.5523837091422275,3.6350057032306164,,0.6208765131496818
453,mp-766823,Li7Ti11O24,"{'Li': 7.0, 'Ti': 11.0, 'O': 24.0}",0.5578335840113215,3.5404156339095403,,0.0
454,mp-768695,Ho2Ti2O7,"{'Ho': 2.0, 'Ti': 2.0, 'O': 7.0}",0.5595356739964936,6.816196653909743,,0.0
455,mp-771031,Lu2TiO5,"{'Lu': 2.0, 'Ti': 1.0, 'O': 5.0}",0.5095365731204764,7.644112893137069,,0.0
456,mp-771127,Rb4TiO4,"{'Rb': 4.0, 'Ti': 1.0, 'O': 4.0}",0.5626914010898034,3.7602464235000768,,0.0
457,mp-775149,Ti(SO4)2,"{'Ti': 1.0, 'S': 2.0, 'O': 8.0}",0.49724289978654146,2.6305540631535775,,0.0
458,mp-8244,Ti5TlSe8,"{'Ti': 5.0, 'Tl': 1.0, 'Se': 8.0}",0.19093787587804598,5.907533466685221,,0.0
459,mp-861639,Ti2CoIr,"{'Ti': 2.0, 'Co': 1.0, 'Ir': 1.0}",0.15586615298256923,10.030921198382599,"{'G_Reuss': 61.0, 'G_VRH': 64.0, 'G_Voigt': 68.0, 'G_Voigt_Reuss_Hill': 64.0, 'K_Reuss': 193.0, 'K_VRH': 193.0, 'K_Voigt': 193.0, 'K_Voigt_Reuss_Hill': 193.0, 'elastic_anisotropy': 0.55, 'elastic_tensor': [[251.0, 165.0, 165.0, 0.0, 0.0, 0.0], [165.0, 251.0, 165.0, 0.0, 0.0, 0.0], [165.0, 165.0, 251.0, 0.0, 0.0, 0.0], [0.0, 0.0, 0.0, 84.0, 0.0, 0.0], [0.0, 0.0, 0.0, 0.0, 84.0, 0.0], [0.0, 0.0, 0.0, 0.0, 0.0, 84.0]], 'homogeneous_poisson': 0.35, 'poisson_ratio': 0.35, 'universal_anisotropy': 0.55, 'elastic_tensor_original': [[251.5431021841937, 164.74074898626625, 164.74285808638655, 0.00016717758155472464, 9.633658011071189e-05, 0.00012530338779775965], [165.96398177682843, 250.0500177542354, 165.9639275793168, 0.0, 0.0, 0.0], [162.87265589686353, 162.8754515323995, 250.85251409723628, -0.00022887106813318156, 0.00013080638182224062, -1.932822686643776e-05], [0.0037851240976740806, 0.004019570756053271, 0.004063388414100437, 83.84564908514389, 0.0, 0.0], [0.007429952802005379, 0.0055880177019264525, 0.006803777488043497, 0.0, 83.84631431815521, 0.0], [7.170103232207465e-05, 0.00010292180085641367, 0.00036325713305969404, 0.0, 0.0, 83.84704080427571]], 'compliance_tensor': [[8.3, -3.3, -3.3, -0.0, -0.0, 0.0], [-3.3, 8.3, -3.3, 0.0, 0.0, 0.0], [-3.3, -3.3, 8.3, 0.0, -0.0, -0.0], [-0.0, 0.0, 0.0, 11.9, 0.0, -0.0], [-0.0, 0.0, -0.0, 0.0, 11.9, 0.0], [0.0, 0.0, -0.0, -0.0, 0.0, 11.9]], 'warnings': [], 'nsites': 4}",0.0
460,mp-861640,Ti2AlRe,"{'Ti': 2.0, 'Al': 1.0, 'Re': 1.0}",0.12827792892124104,8.24757087189734,"{'G_Reuss': 66.0, 'G_VRH': 72.0, 'G_Voigt': 77.0, 'G_Voigt_Reuss_Hill': 72.0, 'K_Reuss': 172.0, 'K_VRH': 172.0, 'K_Voigt': 172.0, 'K_Voigt_Reuss_Hill': 172.0, 'elastic_anisotropy': 0.85, 'elastic_tensor': [[230.0, 143.0, 143.0, 0.0, 0.0, 0.0], [143.0, 230.0, 143.0, 0.0, 0.0, 0.0], [143.0, 143.0, 230.0, 0.0, 0.0, 0.0], [0.0, 0.0, 0.0, 100.0, 0.0, 0.0], [0.0, 0.0, 0.0, 0.0, 100.0, 0.0], [0.0, 0.0, 0.0, 0.0, 0.0, 100.0]], 'homogeneous_poisson': 0.32, 'poisson_ratio': 0.32, 'universal_anisotropy': 0.85, 'elastic_tensor_original': [[229.92583348221805, 143.5815828249228, 143.5815371866319, 0.0, -5.935656733192103e-05, 0.0], [142.23886683470067, 230.79301304040936, 142.23877644034008, 0.0, -4.5177130454984866e-05, 0.0], [141.83328398841437, 141.83323893029296, 230.49375158325967, 0.0, -5.917608206446681e-05, 0.0], [0.0023315668619027182, 0.002388513138029135, 0.0024707369513524984, 99.6158149482025, 0.0, -1.5893343375848885e-05], [0.00015511370039418887, -0.0003702526399725495, -2.4407698841916605e-05, 0.0, 99.61538189866157, 0.0], [-0.00041208063816879445, -0.0002826145584373752, -0.0001277992066140345, -1.582667015211721e-05, 6.6666977875434605e-09, 99.619444618488]], 'compliance_tensor': [[8.2, -3.1, -3.1, -0.0, -0.0, 0.0], [-3.1, 8.2, -3.1, -0.0, 0.0, 0.0], [-3.1, -3.1, 8.2, -0.0, -0.0, -0.0], [-0.0, -0.0, -0.0, 10.0, 0.0, -0.0], [-0.0, 0.0, -0.0, 0.0, 10.0, -0.0], [0.0, 0.0, -0.0, -0.0, -0.0, 10.0]], 'warnings': [], 'nsites': 4}",0.0