,mp_id,Formula,Composition,IPF,Density,Elastic_Tensor,E_above_Hull
474,mp-866155,TiAlRu2,"{'Ti': 1.0, 'Al': 1.0, 'Ru': 2.0}",0.11102112505093871,8.111431846362592,"{'G_Reuss': 86.0, 'G_VRH': 86.0, 'G_Voigt': 87.0, 'G_Voigt_Reuss_Hill': 86.0, 'K_Reuss': 209.0, 'K_VRH': 209.0, 'K_Voigt': 209.0, 'K_Voigt_Reuss_Hill': 209.0, 'elastic_anisotropy': 0.02, 'elastic_tensor': [[315.0, 156.0, 156.0, 0.0, 0.0, 0.0], [156.0, 315.0, 156.0, 0.0, 0.0, 0.0], [156.0, 156.0, 315.0, 0.0, 0.0, 0.0], [0.0, 0.0, 0.0, 91.0, 0.0, 0.0], [0.0, 0.0, 0.0, 0.0, 91.0, 0.0], [0.0, 0.0, 0.0, 0.0, 0.0, 91.0]], 'homogeneous_poisson': 0.32, 'poisson_ratio': 0.32, 'universal_anisotropy': 0.02, 'elastic_tensor_original': [[313.5038092981577, 156.46370838084772, 156.46370838084772, 0.0, 0.0, 0.0], [156.45595230092863, 313.4972730464732, 156.45595230092863, 0.0, 0.0, 0.0], [154.4268597018357, 154.4268597018357, 317.3836039859991, 0.0, 0.0, 0.0], [5.235671447251364e-05, 5.299671505488073e-05, 5.483671673518377e-05, 91.26491750198699, 0.0, 0.0], [1.0840009899974833e-05, 1.1513343846128773e-05, 3.836670169672888e-06, 0.0, 91.26489216196386, 0.0], [-2.3466688082541262e-06, -2.9700027115071937e-06, 6.933339655963322e-07, 0.0, 0.0, 91.26489141529652]], 'compliance_tensor': [[4.7, -1.6, -1.6, 0.0, 0.0, -0.0], [-1.6, 4.7, -1.6, -0.0, 0.0, 0.0], [-1.6, -1.6, 4.7, 0.0, -0.0, 0.0], [0.0, -0.0, 0.0, 11.0, -0.0, -0.0], [0.0, 0.0, -0.0, -0.0, 11.0, -0.0], [-0.0, 0.0, 0.0, -0.0, -0.0, 11.0]], 'warnings': [], 'nsites': 4}",0.0
475,mp-866170,TiInRh2,"{'Ti': 1.0, 'In': 1.0, 'Rh': 2.0}",0.14905750117623906,9.569856062042563,"{'G_Reuss': -233.0, 'G_VRH': -103.0, 'G_Voigt': 28.0, 'G_Voigt_Reuss_Hill': -103.0, 'K_Reuss': 174.0, 'K_VRH': 174.0, 'K_Voigt': 174.0, 'K_Voigt_Reuss_Hill': 174.0, 'elastic_anisotropy': -5.6, 'elastic_tensor': [[133.0, 194.0, 194.0, 0.0, 0.0, 0.0], [194.0, 133.0, 194.0, 0.0, 0.0, 0.0], [194.0, 194.0, 133.0, 0.0, 0.0, 0.0], [0.0, 0.0, 0.0, 67.0, 0.0, 0.0], [0.0, 0.0, 0.0, 0.0, 67.0, 0.0], [0.0, 0.0, 0.0, 0.0, 0.0, 67.0]], 'homogeneous_poisson': 0.87, 'poisson_ratio': 0.87, 'universal_anisotropy': -5.6, 'elastic_tensor_original': [[133.17228610672606, 198.83484794798855, 198.83484794798855, 0.0, 0.0, 0.0], [192.38933425481076, 135.88086119200884, 192.38933425481076, 0.0, 0.0, 0.0], [189.68103508087344, 189.68103508087344, 130.70310373858928, 0.0, 0.0, 0.0], [-0.008824017035179882, -0.015653105813187594, -0.01443697484359612, 66.94367953596601, 0.0, 0.0], [-0.003326755985676523, -0.003798159694849545, -0.0034417327440130563, 0.0, 66.92754631643672, 0.0], [0.01780721753061236, 0.016977153535488405, 0.010358418258527638, 0.0, 0.0, 66.94134381077048]], 'compliance_tensor': [[-10.4, 6.2, 6.2, -0.0, 0.0, 0.0], [6.2, -10.4, 6.2, -0.0, 0.0, 0.0], [6.2, 6.2, -10.4, 0.0, -0.0, -0.0], [-0.0, -0.0, 0.0, 14.9, 0.0, 0.0], [0.0, 0.0, 0.0, 0.0, 14.9, 0.0], [0.0, 0.0, 0.0, 0.0, 0.0, 14.9]], 'warnings': ['Elastic tensor has a negative eigenvalue', 'c11 and c12 are within 5% or c12 is greater than c11', 'c11 and c13 are within 5% or c13 is greater than c11', 'c11 and c23 are within 5% or c23 is greater than c11', 'One or more K, G below 2 GPa'], 'nsites': 4}",0.0
476,mp-866187,Ti2ZnTc,"{'Ti': 2.0, 'Zn': 1.0, 'Tc': 1.0}",0.15911374962345054,7.030689430193968,"{'G_Reuss': 46.0, 'G_VRH': 49.0, 'G_Voigt': 52.0, 'G_Voigt_Reuss_Hill': 49.0, 'K_Reuss': 157.0, 'K_VRH': 157.0, 'K_Voigt': 157.0, 'K_Voigt_Reuss_Hill': 157.0, 'elastic_anisotropy': 0.69, 'elastic_tensor': [[199.0, 136.0, 136.0, 0.0, 0.0, 0.0], [136.0, 199.0, 136.0, 0.0, 0.0, 0.0], [136.0, 136.0, 199.0, 0.0, 0.0, 0.0], [0.0, 0.0, 0.0, 66.0, 0.0, 0.0], [0.0, 0.0, 0.0, 0.0, 66.0, 0.0], [0.0, 0.0, 0.0, 0.0, 0.0, 66.0]], 'homogeneous_poisson': 0.36, 'poisson_ratio': 0.36, 'universal_anisotropy': 0.69, 'elastic_tensor_original': [[198.72938005502618, 136.12518617989656, 136.12518617989656, 0.0, 0.0, 0.0], [136.12343252717017, 198.72509526804208, 136.12343252717017, 0.0, 0.0, 0.0], [136.12551002687107, 136.12551002687107, 198.72711161842867, 0.0, 0.0, 0.0], [-0.0004623149943793868, 1.4479898325307885, -1.44870942111652, 65.74104182589751, 0.0, 0.0], [-3.333629699584504e-05, -0.00029181011915011944, -0.0003581361576997877, 0.0, 65.74112854488614, 0.0], [-0.1801159639523661, 0.18036150317161345, -0.0002536835108525295, 0.0, 0.0, 65.74095342156753]], 'compliance_tensor': [[11.4, -4.6, -4.6, -0.0, 0.0, 0.0], [-4.6, 11.4, -4.6, 0.0, -0.0, 0.0], [-4.6, -4.6, 11.4, 0.0, 0.0, -0.0], [-0.0, 0.0, 0.0, 15.2, -0.0, -0.0], [0.0, -0.0, 0.0, -0.0, 15.2, -0.0], [0.0, 0.0, -0.0, -0.0, -0.0, 15.2]], 'warnings': [], 'nsites': 4}",0.0
477,mp-867373,Ti2Co12P7,"{'Ti': 2.0, 'Co': 12.0, 'P': 7.0}",0.13774030488656167,7.099564823084411,,0.0
478,mp-867821,TaTiMn2,"{'Ta': 1.0, 'Ti': 1.0, 'Mn': 2.0}",0.1298892584111125,10.17393399198337,"{'G_Reuss': 84.0, 'G_VRH': 89.0, 'G_Voigt': 94.0, 'G_Voigt_Reuss_Hill': 89.0, 'K_Reuss': 217.0, 'K_VRH': 217.0, 'K_Voigt': 217.0, 'K_Voigt_Reuss_Hill': 217.0, 'elastic_anisotropy': 0.63, 'elastic_tensor': [[399.0, 127.0, 127.0, 0.0, 0.0, 0.0], [127.0, 399.0, 127.0, 0.0, 0.0, 0.0], [127.0, 127.0, 399.0, 0.0, 0.0, 0.0], [0.0, 0.0, 0.0, 67.0, 0.0, 0.0], [0.0, 0.0, 0.0, 0.0, 67.0, 0.0], [0.0, 0.0, 0.0, 0.0, 0.0, 67.0]], 'homogeneous_poisson': 0.32, 'poisson_ratio': 0.32, 'universal_anisotropy': 0.63, 'elastic_tensor_original': [[399.45071757402496, 132.52840942211168, 132.52370634134186, -0.00016630136374219835, -8.21132933256824e-05, -0.00011758400166704862], [128.0597726365096, 401.8806459463105, 128.0597726365096, 0.0, 0.0, 0.0], [119.96219936813591, 119.96219936813591, 394.18343021030245, 0.0, 0.0, 0.0], [-2.8196720352216908e-05, -4.6356710005987165e-05, -3.9506712137080504e-05, 66.87531119686105, 0.0, 0.0], [0.006444922485170406, 0.002304720853464374, -0.002005157809586379, 0.0, 66.88229152101475, 0.0], [0.05089220853589511, 0.04109341554821297, 0.043812800968743085, 0.0, 0.0, 66.87858255031593]], 'compliance_tensor': [[3.0, -0.7, -0.7, 0.0, 0.0, -0.0], [-0.7, 3.0, -0.7, -0.0, 0.0, 0.0], [-0.7, -0.7, 3.0, 0.0, -0.0, 0.0], [0.0, -0.0, 0.0, 15.0, 0.0, 0.0], [0.0, 0.0, -0.0, 0.0, 15.0, 0.0], [-0.0, 0.0, 0.0, 0.0, 0.0, 15.0]], 'warnings': [], 'nsites': 4}",0.0
479,mp-9172,Li4TiO4,"{'Li': 4.0, 'Ti': 1.0, 'O': 4.0}",0.5204875095699774,2.49757315975166,"{'G_Reuss': 42.0, 'G_VRH': 43.0, 'G_Voigt': 43.0, 'G_Voigt_Reuss_Hill': 43.0, 'K_Reuss': 79.0, 'K_VRH': 80.0, 'K_Voigt': 80.0, 'K_Voigt_Reuss_Hill': 80.0, 'elastic_anisotropy': 0.16, 'elastic_tensor': [[131.0, 40.0, 51.0, 0.0, 0.0, 0.0], [40.0, 150.0, 54.0, 0.0, 0.0, 0.0], [51.0, 54.0, 151.0, 0.0, 0.0, 0.0], [0.0, 0.0, 0.0, 43.0, 0.0, 0.0], [0.0, 0.0, 0.0, 0.0, 46.0, 0.0], [0.0, 0.0, 0.0, 0.0, 0.0, 31.0]], 'homogeneous_poisson': 0.27, 'poisson_ratio': 0.27, 'universal_anisotropy': 0.16, 'elastic_tensor_original': [[130.50548187242998, 39.57435904972174, 51.192778307596726, 0.0, 0.0, 0.0], [39.50499649537664, 150.43427434841087, 53.609205437930385, 0.0, 0.0, 0.0], [51.19226962348065, 53.98787178601263, 151.32648507333877, 0.0, 0.0, 0.0], [0.008092707487822258, -0.011428131159596188, 0.0221557522481106, 43.35729073606825, 0.0, 0.0], [-2.153000293458715e-05, 9.733202379161041e-07, -5.881330864041348e-05, 0.0, 46.21065426787551, 0.0], [0.05852053401103301, 0.003581075068915428, 0.0319343444150117, 0.0, 0.0, 31.0922651999666]], 'compliance_tensor': [[9.1, -1.5, -2.6, 0.0, 0.0, 0.0], [-1.5, 7.9, -2.3, 0.0, 0.0, 0.0], [-2.6, -2.3, 8.3, 0.0, 0.0, -0.0], [0.0, 0.0, 0.0, 23.1, 0.0, 0.0], [0.0, 0.0, 0.0, 0.0, 21.6, 0.0], [0.0, 0.0, -0.0, 0.0, 0.0, 32.2]], 'warnings': [], 'nsites': 18}",0.0
480,mp-924130,TiNiSn,"{'Ti': 1.0, 'Ni': 1.0, 'Sn': 1.0}",0.12911409052544734,7.230096922996658,"{'G_Reuss': 68.0, 'G_VRH': 68.0, 'G_Voigt': 68.0, 'G_Voigt_Reuss_Hill': 68.0, 'K_Reuss': 122.0, 'K_VRH': 122.0, 'K_Voigt': 122.0, 'K_Voigt_Reuss_Hill': 122.0, 'elastic_anisotropy': 0.01, 'elastic_tensor': [[217.0, 75.0, 75.0, 0.0, 0.0, 0.0], [75.0, 217.0, 75.0, 0.0, 0.0, 0.0], [75.0, 75.0, 217.0, 0.0, 0.0, 0.0], [0.0, 0.0, 0.0, 65.0, 0.0, 0.0], [0.0, 0.0, 0.0, 0.0, 65.0, 0.0], [0.0, 0.0, 0.0, 0.0, 0.0, 65.0]], 'homogeneous_poisson': 0.27, 'poisson_ratio': 0.27, 'universal_anisotropy': 0.01, 'elastic_tensor_original': [[216.80584016753932, 74.92254234834071, 74.92254234834071, 0.0, 0.0, 0.0], [74.86713577972482, 216.7495655722119, 74.86713577972482, 0.0, 0.0, 0.0], [74.88429948190098, 74.88429948190098, 216.7681623119781, 0.0, 0.0, 0.0], [-0.00017870684617067017, -0.00018581351997668826, -0.00018847352264904788, 65.48636642889618, 0.0, 0.0], [-4.5086711954437857e-05, -5.34167203216686e-05, -4.759671447604277e-05, 0.0, 65.48626697879627, 0.0], [-0.0002983702997028556, -0.000303153637841395, -0.0003018069698204083, 0.0, 0.0, 65.48633368219663]], 'compliance_tensor': [[5.6, -1.4, -1.4, -0.0, 0.0, -0.0], [-1.4, 5.6, -1.4, -0.0, -0.0, 0.0], [-1.4, -1.4, 5.6, 0.0, -0.0, -0.0], [-0.0, -0.0, 0.0, 15.3, -0.0, -0.0], [0.0, -0.0, -0.0, -0.0, 15.3, -0.0], [-0.0, 0.0, -0.0, -0.0, -0.0, 15.3]], 'warnings': [], 'nsites': 3}",0.0
481,mp-9333,La3TiSb5,"{'La': 3.0, 'Ti': 1.0, 'Sb': 5.0}",0.13831680509669722,7.085783455012243,,0.0
482,mp-961673,TiFeTe,"{'Ti': 1.0, 'Fe': 1.0, 'Te': 1.0}",0.2797864537394527,7.544316549414458,"{'G_Reuss': 80.0, 'G_VRH': 80.0, 'G_Voigt': 81.0, 'G_Voigt_Reuss_Hill': 80.0, 'K_Reuss': 153.0, 'K_VRH': 153.0, 'K_Voigt': 153.0, 'K_Voigt_Reuss_Hill': 153.0, 'elastic_anisotropy': 0.04, 'elastic_tensor': [[273.0, 93.0, 93.0, 0.0, 0.0, 0.0], [93.0, 273.0, 93.0, 0.0, 0.0, 0.0], [93.0, 93.0, 273.0, 0.0, 0.0, 0.0], [0.0, 0.0, 0.0, 75.0, 0.0, 0.0], [0.0, 0.0, 0.0, 0.0, 75.0, 0.0], [0.0, 0.0, 0.0, 0.0, 0.0, 75.0]], 'homogeneous_poisson': 0.28, 'poisson_ratio': 0.28, 'universal_anisotropy': 0.04, 'elastic_tensor_original': [[273.2419198102873, 93.36451279899059, 93.3646081981856, 1.579986668220561e-05, -0.00031039738089598865, 0.00010819908702624346], [93.3647032247851, 273.2419198095196, 93.36470341086562, 4.759812101578091e-05, -0.00015861956507777627, 7.873312871055897e-05], [93.36460819815868, 93.36451279894322, 273.24191981020874, 1.642231562480956e-05, -0.00031039738070055633, 4.7675353581881635e-05], [0.0, 0.0, 2.5357400443427693e-05, 74.59538242847755, 1.272905552011004e-05, -6.339347279038535e-05], [-0.00012678693970544853, 0.0, -0.00012678691758066346, 2.5307023903588676e-05, 74.59538242847127, 0.0], [2.5357392528928423e-05, 5.07147762207869e-05, 0.0, -6.339346850189129e-05, 1.2628324985178703e-05, 74.59538242847334]], 'compliance_tensor': [[4.4, -1.1, -1.1, 0.0, 0.0, -0.0], [-1.1, 4.4, -1.1, -0.0, -0.0, -0.0], [-1.1, -1.1, 4.4, -0.0, 0.0, 0.0], [0.0, -0.0, -0.0, 13.4, -0.0, 0.0], [0.0, -0.0, 0.0, -0.0, 13.4, -0.0], [-0.0, -0.0, 0.0, 0.0, -0.0, 13.4]], 'warnings': [], 'nsites': 3}",0.0
483,mp-961682,TiSnPd,"{'Ti': 1.0, 'Sn': 1.0, 'Pd': 1.0}",0.12533666855107262,7.554322965866566,"{'G_Reuss': 76.0, 'G_VRH': 77.0, 'G_Voigt': 78.0, 'G_Voigt_Reuss_Hill': 77.0, 'K_Reuss': 118.0, 'K_VRH': 118.0, 'K_Voigt': 118.0, 'K_Voigt_Reuss_Hill': 118.0, 'elastic_anisotropy': 0.09, 'elastic_tensor': [[206.0, 75.0, 75.0, 0.0, 0.0, 0.0], [75.0, 206.0, 75.0, 0.0, 0.0, 0.0], [75.0, 75.0, 206.0, 0.0, 0.0, 0.0], [0.0, 0.0, 0.0, 86.0, 0.0, 0.0], [0.0, 0.0, 0.0, 0.0, 86.0, 0.0], [0.0, 0.0, 0.0, 0.0, 0.0, 86.0]], 'homogeneous_poisson': 0.23, 'poisson_ratio': 0.23, 'universal_anisotropy': 0.09, 'elastic_tensor_original': [[205.51048881795506, 74.66627976240932, 74.66627976240932, -0.0001442004622725303, 0.0004490014393922754, 0.0001796005757569102], [74.66637632738006, 205.51048881417591, 74.6663280439439, -0.00027288110166698423, 0.00024064676020849453, 0.00018140061096139868], [74.66637632860181, 74.66632804560422, 205.51048881814384, -0.0002696182774830657, 0.0004487911872012854, 9.627769071295355e-05], [0.0026382262956942, 0.0024538147575325045, 0.002332932334745632, 86.19401591653617, 5.556163448545816e-05, 0.00013848109939062055], [-0.0023420879736348013, -0.0026368007263362836, -0.0022206909700696305, 5.54794942938735e-05, 86.18197695917054, -8.349333374903058e-05], [0.00011118986241361758, 0.00011091255534027958, -3.311647559451715e-10, 0.00013891795369437468, -8.315057486266352e-05, 86.18797876699342]], 'compliance_tensor': [[6.0, -1.6, -1.6, -0.0, -0.0, -0.0], [-1.6, 6.0, -1.6, 0.0, 0.0, -0.0], [-1.6, -1.6, 6.0, 0.0, -0.0, 0.0], [-0.0, 0.0, 0.0, 11.6, -0.0, -0.0], [-0.0, 0.0, -0.0, -0.0, 11.6, 0.0], [-0.0, -0.0, 0.0, -0.0, 0.0, 11.6]], 'warnings': [], 'nsites': 3}",0.0
484,mp-977440,LiTiPt2,"{'Li': 1.0, 'Ti': 1.0, 'Pt': 2.0}",0.1707638810476957,12.60327472096375,"{'G_Reuss': 108.0, 'G_VRH': 40.0, 'G_Voigt': -27.0, 'G_Voigt_Reuss_Hill': 40.0, 'K_Reuss': 181.0, 'K_VRH': 181.0, 'K_Voigt': 181.0, 'K_Voigt_Reuss_Hill': 181.0, 'elastic_anisotropy': -6.25, 'elastic_tensor': [[-8.0, 275.0, 275.0, 0.0, 0.0, 0.0], [275.0, -8.0, 275.0, 0.0, 0.0, 0.0], [275.0, 275.0, -8.0, 0.0, 0.0, 0.0], [0.0, 0.0, 0.0, 50.0, 0.0, 0.0], [0.0, 0.0, 0.0, 0.0, 50.0, 0.0], [0.0, 0.0, 0.0, 0.0, 0.0, 50.0]], 'homogeneous_poisson': 0.4, 'poisson_ratio': 0.4, 'universal_anisotropy': -6.25, 'elastic_tensor_original': [[-8.200731721410477, 275.20461669149563, 275.20461669149563, 0.0, 0.0, 0.0], [275.20461669149563, -8.200731721410477, 275.20461669149563, 0.0, 0.0, 0.0], [275.20461669149563, 275.20461669149563, -8.200731721410477, 0.0, 0.0, 0.0], [0.0, 0.0, 0.0, 49.53925854195822, 0.0, 0.0], [0.0, 0.0, 0.0, 0.0, 49.53925854195822, 0.0], [0.0, 0.0, 0.0, 0.0, 0.0, 49.53925854195822]], 'compliance_tensor': [[-1.7, 1.8, 1.8, -0.0, -0.0, 0.0], [1.8, -1.7, 1.8, -0.0, -0.0, -0.0], [1.8, 1.8, -1.7, -0.0, -0.0, 0.0], [-0.0, -0.0, -0.0, 20.2, 0.0, -0.0], [-0.0, -0.0, -0.0, 0.0, 20.2, -0.0], [0.0, -0.0, 0.0, -0.0, -0.0, 20.2]], 'warnings': ['Elastic tensor has a negative eigenvalue', 'c11 and c12 are within 5% or c12 is greater than c11', 'c11 and c13 are within 5% or c13 is greater than c11', 'c11 and c23 are within 5% or c23 is greater than c11', 'One or more K, G below 2 GPa'], 'nsites': 4}",0.0
485,mp-1008680,TiGePt,"{'Ti': 1.0, 'Ge': 1.0, 'Pt': 1.0}",0.1243740132451421,9.749869469337343,"{'G_Reuss': 42.0, 'G_VRH': 50.0, 'G_Voigt': 58.0, 'G_Voigt_Reuss_Hill': 50.0, 'K_Reuss': 142.0, 'K_VRH': 142.0, 'K_Voigt': 142.0, 'K_Voigt_Reuss_Hill': 142.0, 'elastic_anisotropy': 1.86, 'elastic_tensor': [[175.0, 125.0, 125.0, 0.0, 0.0, 0.0], [125.0, 175.0, 125.0, 0.0, 0.0, 0.0], [125.0, 125.0, 175.0, 0.0, 0.0, 0.0], [0.0, 0.0, 0.0, 80.0, 0.0, 0.0], [0.0, 0.0, 0.0, 0.0, 80.0, 0.0], [0.0, 0.0, 0.0, 0.0, 0.0, 80.0]], 'homogeneous_poisson': 0.34, 'poisson_ratio': 0.34, 'universal_anisotropy': 1.86, 'elastic_tensor_original': [[174.7247935173125, 125.1568138358101, 125.1568138358101, 0.0, 0.0, 0.0], [125.1568138358101, 174.7247935173125, 125.1568138358101, 0.0, 0.0, 0.0], [125.1568138358101, 125.1568138358101, 174.7247935173125, 0.0, 0.0, 0.0], [0.0, 0.0, 0.0, 80.4292283724756, 0.0, 0.0], [0.0, 0.0, 0.0, 0.0, 80.4292283724756, 0.0], [0.0, 0.0, 0.0, 0.0, 0.0, 80.4292283724756]], 'compliance_tensor': [[14.2, -5.9, -5.9, 0.0, -0.0, -0.0], [-5.9, 14.2, -5.9, -0.0, 0.0, 0.0], [-5.9, -5.9, 14.2, -0.0, -0.0, -0.0], [0.0, -0.0, -0.0, 12.4, 0.0, -0.0], [-0.0, 0.0, -0.0, 0.0, 12.4, -0.0], [-0.0, 0.0, 0.0, -0.0, -0.0, 12.4]], 'warnings': [], 'nsites': 3}",0.0
486,mp-10136,Ti2ReB2,"{'Ti': 2.0, 'Re': 1.0, 'B': 2.0}",0.1292183051590566,8.962409925311519,"{'G_Reuss': 188.0, 'G_VRH': 189.0, 'G_Voigt': 190.0, 'G_Voigt_Reuss_Hill': 189.0, 'K_Reuss': 252.0, 'K_VRH': 253.0, 'K_Voigt': 254.0, 'K_Voigt_Reuss_Hill': 253.0, 'elastic_anisotropy': 0.07, 'elastic_tensor': [[421.0, 140.0, 140.0, 0.0, 0.0, 0.0], [140.0, 534.0, 120.0, 0.0, 0.0, 0.0], [140.0, 120.0, 534.0, 0.0, 0.0, 0.0], [0.0, 0.0, 0.0, 189.0, 0.0, 0.0], [0.0, 0.0, 0.0, 0.0, 199.0, 0.0], [0.0, 0.0, 0.0, 0.0, 0.0, 199.0]], 'homogeneous_poisson': 0.2, 'poisson_ratio': 0.2, 'universal_anisotropy': 0.07, 'elastic_tensor_original': [[533.5404257056701, 120.1720473553187, 135.99713897435518, 0.0, 0.0, 0.0], [120.11182418195516, 533.5102893092372, 135.94533213408505, 0.0, 0.0, 0.0], [143.07142207983338, 143.07142207983338, 421.3004712381435, 0.0, 0.0, 0.0], [2.6869984850814168e-05, -1.6766648912395326e-05, 1.8366696438042845e-06, 199.40243087820195, 0.0, 0.0], [-7.681662149662369e-05, -2.4686638053222637e-05, -4.832662633010558e-05, 0.0, 199.4024303481968, 0.0], [-0.00037844334302130023, -0.0003764766607944554, -0.0003897500204257972, 0.0, 0.0, 189.17209293063055]], 'compliance_tensor': [[2.8, -0.6, -0.6, 0.0, 0.0, -0.0], [-0.6, 2.1, -0.3, 0.0, -0.0, 0.0], [-0.6, -0.3, 2.1, 0.0, 0.0, 0.0], [0.0, 0.0, 0.0, 5.3, 0.0, 0.0], [0.0, -0.0, 0.0, 0.0, 5.0, 0.0], [-0.0, 0.0, 0.0, 0.0, 0.0, 5.0]], 'warnings': [], 'nsites': 10}",0.0
487,mp-1025238,Tm(TiGa2)2,"{'Tm': 1.0, 'Ti': 2.0, 'Ga': 4.0}",0.1458714319945559,7.302528729539403,"{'G_Reuss': 56.0, 'G_VRH': 58.0, 'G_Voigt': 61.0, 'G_Voigt_Reuss_Hill': 58.0, 'K_Reuss': 102.0, 'K_VRH': 102.0, 'K_Voigt': 103.0, 'K_Voigt_Reuss_Hill': 102.0, 'elastic_anisotropy': 0.52, 'elastic_tensor': [[157.0, 61.0, 61.0, 0.0, 0.0, 0.0], [61.0, 173.0, 88.0, 0.0, 0.0, 0.0], [61.0, 88.0, 173.0, 0.0, 0.0, 0.0], [0.0, 0.0, 0.0, 105.0, 0.0, 0.0], [0.0, 0.0, 0.0, 0.0, 52.0, 0.0], [0.0, 0.0, 0.0, 0.0, 0.0, 52.0]], 'homogeneous_poisson': 0.26, 'poisson_ratio': 0.26, 'universal_anisotropy': 0.52, 'elastic_tensor_original': [[156.9552470556953, 64.36138493298131, 64.36138493298131, 0.0, 0.0, 0.0], [58.622210210321846, 173.284598756549, 88.26531325911645, 0.0, 0.0, 0.0], [58.622210210321846, 88.26531325911645, 173.284598756549, 0.0, 0.0, 0.0], [0.0, 1.0470123206410042, -1.0470123206410045, 104.69552428688418, 0.0, 0.0], [0.0, 0.0, 0.0, 0.0, 52.112971048873604, 0.0], [0.0, 0.0, 0.0, 0.0, 0.0, 52.112971048873604]], 'compliance_tensor': [[7.8, -1.8, -1.8, -0.0, 0.0, 0.0], [-1.8, 8.2, -3.5, 0.0, -0.0, 0.0], [-1.8, -3.5, 8.2, 0.0, 0.0, -0.0], [-0.0, 0.0, 0.0, 9.6, 0.0, 0.0], [0.0, -0.0, 0.0, 0.0, 19.2, 0.0], [0.0, 0.0, -0.0, 0.0, 0.0, 19.2]], 'warnings': ['Contains a rare earth element'], 'nsites': 7}",0.0
488,mp-1025263,Ti2NiS4,"{'Ti': 2.0, 'Ni': 1.0, 'S': 4.0}",0.1617990526589595,4.152401887128523,"{'G_Reuss': 53.0, 'G_VRH': 55.0, 'G_Voigt': 58.0, 'G_Voigt_Reuss_Hill': 55.0, 'K_Reuss': 81.0, 'K_VRH': 83.0, 'K_Voigt': 85.0, 'K_Voigt_Reuss_Hill': 83.0, 'elastic_anisotropy': 0.51, 'elastic_tensor': [[156.0, 49.0, 40.0, 0.0, -23.0, 0.0], [49.0, 185.0, 45.0, 0.0, -22.0, 0.0], [40.0, 45.0, 161.0, 0.0, -2.0, 0.0], [0.0, 0.0, 0.0, 64.0, 0.0, -18.0], [-23.0, -22.0, -2.0, 0.0, 56.0, 0.0], [0.0, 0.0, 0.0, -18.0, 0.0, 47.0]], 'homogeneous_poisson': 0.23, 'poisson_ratio': 0.23, 'universal_anisotropy': 0.51, 'elastic_tensor_original': [[155.98655874255437, 54.614381248115095, 41.158355503602905, 2.7999938707619255e-06, 31.51854240533105, 1.3799969791612346e-05], [43.79569652827437, 184.61476506676385, 45.68259968405085, 0.0, 30.83258327520956, 0.0], [38.13921961453105, 44.144268731720494, 160.743475290544, 8.000000422563687e-07, 9.259948889114742, 3.4000001795895667e-06], [0.0, 0.0, 0.0, 63.68832912053689, 0.0, 19.62125342920861], [13.826839696616863, 13.181100843002133, -4.841149145213512, 4.900017859780551e-06, 55.72190619742639, 1.2000043738238084e-06], [0.0, 0.0, 0.0, 15.321051105765168, 0.0, 47.13354600397909]], 'compliance_tensor': [[7.6, -1.4, -1.4, 0.0, 2.5, 0.0], [-1.4, 6.4, -1.4, 0.0, 1.9, 0.0], [-1.4, -1.4, 7.0, 0.0, -0.9, -0.0], [0.0, 0.0, 0.0, 17.5, 0.0, 6.5], [2.5, 1.9, -0.9, 0.0, 19.7, 0.0], [0.0, 0.0, -0.0, 6.5, 0.0, 23.6]], 'warnings': [], 'nsites': 7}",0.0
489,mp-1025368,Ti2VS4,"{'Ti': 2.0, 'V': 1.0, 'S': 4.0}",0.15851927237709934,3.89883001900686,,0.0