,mp_id,Formula,Composition,IPF,Density,Elastic_Tensor,E_above_Hull
229,mp-865529,Ti2NiIr,"{'Ti': 2.0, 'Ni': 1.0, 'Ir': 1.0}",0.15213341492326607,10.01044668827803,"{'G_Reuss': -19.0, 'G_VRH': 12.0, 'G_Voigt': 43.0, 'G_Voigt_Reuss_Hill': 12.0, 'K_Reuss': 195.0, 'K_VRH': 195.0, 'K_Voigt': 195.0, 'K_Voigt_Reuss_Hill': 195.0, 'elastic_anisotropy': -16.34, 'elastic_tensor': [[186.0, 200.0, 200.0, 0.0, 0.0, 0.0], [200.0, 186.0, 200.0, 0.0, 0.0, 0.0], [200.0, 200.0, 186.0, 0.0, 0.0, 0.0], [0.0, 0.0, 0.0, 76.0, 0.0, 0.0], [0.0, 0.0, 0.0, 0.0, 76.0, 0.0], [0.0, 0.0, 0.0, 0.0, 0.0, 76.0]], 'homogeneous_poisson': 0.47, 'poisson_ratio': 0.47, 'universal_anisotropy': -16.34, 'elastic_tensor_original': [[185.94868016034619, 199.13897899076483, 199.1423736195596, -0.0013815679150714787, -0.0016663721597945263, -0.0017956871720034634], [199.42619149564516, 186.22558036192532, 199.42981343317936, -0.001706112286965184, -0.001958916951376115, -0.0020469357470974704], [200.43933215045834, 200.43933215045834, 187.25304768954132, 0.0, 0.0, 0.0], [-0.007499356826288571, -0.007368186765194818, -0.007238090037933611, 76.06399385146888, 0.0, 0.0], [0.00038195017789924773, 0.00026202678871098075, 0.0003653835035171959, 0.0, 76.06469027845992, 0.0], [-0.006576959729998084, -0.006737979804998509, -0.005738112672625676, 0.0, 0.0, 76.06306899437142]], 'compliance_tensor': [[-50.0, 25.8, 25.8, 0.0, 0.0, -0.0], [25.8, -50.0, 25.8, -0.0, -0.0, 0.0], [25.8, 25.8, -50.0, 0.0, -0.0, -0.0], [0.0, -0.0, 0.0, 13.1, -0.0, 0.0], [0.0, -0.0, -0.0, -0.0, 13.1, 0.0], [-0.0, 0.0, -0.0, 0.0, 0.0, 13.1]], 'warnings': ['Elastic tensor has a negative eigenvalue', 'c11 and c12 are within 5% or c12 is greater than c11', 'c11 and c13 are within 5% or c13 is greater than c11', 'c11 and c23 are within 5% or c23 is greater than c11', 'One or more K, G below 2 GPa'], 'nsites': 4}",0.0
230,mp-865538,Ti2RePd,"{'Ti': 2.0, 'Re': 1.0, 'Pd': 1.0}",0.14925276600970097,10.429398163398332,"{'G_Reuss': 73.0, 'G_VRH': 73.0, 'G_Voigt': 74.0, 'G_Voigt_Reuss_Hill': 73.0, 'K_Reuss': 192.0, 'K_VRH': 192.0, 'K_Voigt': 192.0, 'K_Voigt_Reuss_Hill': 192.0, 'elastic_anisotropy': 0.11, 'elastic_tensor': [[274.0, 151.0, 151.0, 0.0, 0.0, 0.0], [151.0, 274.0, 151.0, 0.0, 0.0, 0.0], [151.0, 151.0, 274.0, 0.0, 0.0, 0.0], [0.0, 0.0, 0.0, 83.0, 0.0, 0.0], [0.0, 0.0, 0.0, 0.0, 83.0, 0.0], [0.0, 0.0, 0.0, 0.0, 0.0, 83.0]], 'homogeneous_poisson': 0.33, 'poisson_ratio': 0.33, 'universal_anisotropy': 0.11, 'elastic_tensor_original': [[273.56139673942357, 151.10621268647606, 151.10621268647606, 0.0, 0.0, 0.0], [151.11627808918857, 273.54768245285516, 151.11627808918857, 0.0, 0.0, 0.0], [151.10391974968525, 151.10391974968525, 273.5571645439471, 0.0, 0.0, 0.0], [-0.0009449065312045082, -0.0011875364964243163, -0.001124293172157175, 82.89886082913729, 0.0, 0.0], [-0.0001796299742480352, 4.880332633933168e-05, -0.00020802997017727894, 0.0, 82.89907459244, 0.0], [0.0013624798046790103, 0.0006931365673001173, 0.0015799364401706273, 0.0, 0.0, 82.89860780584024]], 'compliance_tensor': [[6.0, -2.1, -2.1, 0.0, 0.0, 0.0], [-2.1, 6.0, -2.1, -0.0, -0.0, 0.0], [-2.1, -2.1, 6.0, -0.0, 0.0, -0.0], [0.0, -0.0, -0.0, 12.1, 0.0, 0.0], [0.0, -0.0, 0.0, 0.0, 12.1, -0.0], [0.0, 0.0, -0.0, 0.0, -0.0, 12.1]], 'warnings': [], 'nsites': 4}",0.0
231,mp-865803,Ti2MoPt,"{'Ti': 2.0, 'Mo': 1.0, 'Pt': 1.0}",0.1492887967888116,10.298147656965556,"{'G_Reuss': 88.0, 'G_VRH': 89.0, 'G_Voigt': 91.0, 'G_Voigt_Reuss_Hill': 89.0, 'K_Reuss': 193.0, 'K_VRH': 193.0, 'K_Voigt': 193.0, 'K_Voigt_Reuss_Hill': 193.0, 'elastic_anisotropy': 0.19, 'elastic_tensor': [[343.0, 117.0, 117.0, 0.0, 0.0, 0.0], [117.0, 343.0, 117.0, 0.0, 0.0, 0.0], [117.0, 117.0, 343.0, 0.0, 0.0, 0.0], [0.0, 0.0, 0.0, 76.0, 0.0, 0.0], [0.0, 0.0, 0.0, 0.0, 76.0, 0.0], [0.0, 0.0, 0.0, 0.0, 0.0, 76.0]], 'homogeneous_poisson': 0.3, 'poisson_ratio': 0.3, 'universal_anisotropy': 0.19, 'elastic_tensor_original': [[343.34980571638886, 117.32317731028444, 117.32317731028444, 0.0, 0.0, 0.0], [116.94118824719038, 342.8877538970522, 116.94118824719038, 0.0, 0.0, 0.0], [117.31985646974167, 117.31985646974167, 343.3471714209679, 0.0, 0.0, 0.0], [0.007869368334189707, 0.018101157168973828, 0.024165871787421772, 76.41401687215135, 0.0, 0.0], [1.2656669349312566e-05, 2.816667263701799e-05, 4.1613342151251196e-05, 0.0, 76.43776381385001, 0.0], [-0.01825130386745578, -0.02433673849029471, -0.008019025032564629, 0.0, 0.0, 76.41378460543548]], 'compliance_tensor': [[3.5, -0.9, -0.9, 0.0, -0.0, -0.0], [-0.9, 3.5, -0.9, -0.0, 0.0, -0.0], [-0.9, -0.9, 3.5, -0.0, -0.0, 0.0], [0.0, -0.0, -0.0, 13.1, -0.0, -0.0], [-0.0, 0.0, -0.0, -0.0, 13.1, -0.0], [-0.0, -0.0, 0.0, -0.0, -0.0, 13.1]], 'warnings': [], 'nsites': 4}",0.0
232,mp-865809,TiTc2Sb,"{'Ti': 1.0, 'Tc': 2.0, 'Sb': 1.0}",0.13167097379665996,9.516408279480293,"{'G_Reuss': 91.0, 'G_VRH': 93.0, 'G_Voigt': 96.0, 'G_Voigt_Reuss_Hill': 93.0, 'K_Reuss': 212.0, 'K_VRH': 212.0, 'K_Voigt': 212.0, 'K_Voigt_Reuss_Hill': 212.0, 'elastic_anisotropy': 0.25, 'elastic_tensor': [[308.0, 165.0, 165.0, 0.0, 0.0, 0.0], [165.0, 308.0, 165.0, 0.0, 0.0, 0.0], [165.0, 165.0, 308.0, 0.0, 0.0, 0.0], [0.0, 0.0, 0.0, 112.0, 0.0, 0.0], [0.0, 0.0, 0.0, 0.0, 112.0, 0.0], [0.0, 0.0, 0.0, 0.0, 0.0, 112.0]], 'homogeneous_poisson': 0.31, 'poisson_ratio': 0.31, 'universal_anisotropy': 0.25, 'elastic_tensor_original': [[309.43649108487546, 163.98415225580314, 163.98415225580314, 0.0, 0.0, 0.0], [166.53109024521305, 305.4598638013694, 166.53109024521305, 0.0, 0.0, 0.0], [163.9547571912365, 163.9547571912365, 308.25320538490746, 0.0, 0.0, 0.0], [8.681323350254916e-05, 8.747323274629798e-05, 6.138992940495132e-05, 111.88037124693255, 0.0, 0.0], [-1.3423317896026299e-05, -3.0109965372815808e-05, -5.423327096695006e-05, 0.0, 111.8803598836123, 0.0], [3.60832918393405e-05, 5.943326499250721e-06, -7.512991360425864e-05, 0.0, 0.0, 111.88048078013992]], 'compliance_tensor': [[5.2, -1.8, -1.8, 0.0, 0.0, -0.0], [-1.8, 5.2, -1.8, -0.0, 0.0, 0.0], [-1.8, -1.8, 5.2, 0.0, -0.0, 0.0], [0.0, -0.0, 0.0, 8.9, -0.0, -0.0], [0.0, 0.0, -0.0, -0.0, 8.9, -0.0], [-0.0, 0.0, 0.0, -0.0, -0.0, 8.9]], 'warnings': [], 'nsites': 4}",0.0
233,mp-865810,TiTc2W,"{'Ti': 1.0, 'Tc': 2.0, 'W': 1.0}",0.12995482663470073,11.693560622969297,"{'G_Reuss': 125.0, 'G_VRH': 128.0, 'G_Voigt': 131.0, 'G_Voigt_Reuss_Hill': 128.0, 'K_Reuss': 263.0, 'K_VRH': 263.0, 'K_Voigt': 263.0, 'K_Voigt_Reuss_Hill': 263.0, 'elastic_anisotropy': 0.23, 'elastic_tensor': [[484.0, 153.0, 153.0, 0.0, 0.0, 0.0], [153.0, 484.0, 153.0, 0.0, 0.0, 0.0], [153.0, 153.0, 484.0, 0.0, 0.0, 0.0], [0.0, 0.0, 0.0, 108.0, 0.0, 0.0], [0.0, 0.0, 0.0, 0.0, 108.0, 0.0], [0.0, 0.0, 0.0, 0.0, 0.0, 108.0]], 'homogeneous_poisson': 0.29, 'poisson_ratio': 0.29, 'universal_anisotropy': 0.23, 'elastic_tensor_original': [[484.27863541127, 152.98669344014357, 152.98669344014357, 0.0, 0.0, 0.0], [152.98773123227886, 484.2797737407446, 152.98773123227886, 0.0, 0.0, 0.0], [152.98267367268664, 152.98267367268664, 484.2747267833092, 0.0, 0.0, 0.0], [-1.1929985879742712e-05, -4.3033206374350295e-06, -5.273321462519214e-06, 107.69663407708714, 0.0, 0.0], [-1.951004407371655e-05, -1.856338111752703e-05, -1.5693385365944285e-05, 0.0, 107.69662784374368, 0.0], [-2.3266656269332145e-05, -2.1656655282112044e-05, -2.323332683423105e-05, 0.0, 0.0, 107.69662472708285]], 'compliance_tensor': [[2.4, -0.6, -0.6, 0.0, -0.0, 0.0], [-0.6, 2.4, -0.6, -0.0, 0.0, -0.0], [-0.6, -0.6, 2.4, 0.0, -0.0, -0.0], [0.0, -0.0, 0.0, 9.3, -0.0, 0.0], [-0.0, 0.0, -0.0, -0.0, 9.3, -0.0], [0.0, -0.0, -0.0, 0.0, -0.0, 9.3]], 'warnings': [], 'nsites': 4}",0.0
234,mp-865842,Ti2OsRu,"{'Ti': 2.0, 'Os': 1.0, 'Ru': 1.0}",0.12965591522173264,10.875791727030174,"{'G_Reuss': 120.0, 'G_VRH': 122.0, 'G_Voigt': 125.0, 'G_Voigt_Reuss_Hill': 122.0, 'K_Reuss': 231.0, 'K_VRH': 231.0, 'K_Voigt': 231.0, 'K_Voigt_Reuss_Hill': 231.0, 'elastic_anisotropy': 0.21, 'elastic_tensor': [[440.0, 127.0, 127.0, 0.0, 0.0, 0.0], [127.0, 440.0, 127.0, 0.0, 0.0, 0.0], [127.0, 127.0, 440.0, 0.0, 0.0, 0.0], [0.0, 0.0, 0.0, 103.0, 0.0, 0.0], [0.0, 0.0, 0.0, 0.0, 103.0, 0.0], [0.0, 0.0, 0.0, 0.0, 0.0, 103.0]], 'homogeneous_poisson': 0.28, 'poisson_ratio': 0.28, 'universal_anisotropy': 0.21, 'elastic_tensor_original': [[440.20239231802395, 126.75826885128674, 126.75826885128674, 0.0, 0.0, 0.0], [126.75630584684244, 440.20174342844376, 126.75630584684244, 0.0, 0.0, 0.0], [126.73814808551481, 126.73814808551481, 439.3528301351264, 0.0, 0.0, 0.0], [0.0013538694934862592, 0.0005909497789120109, 0.0007875063720416769, 103.28973576681821, 0.0, 0.0], [-0.0007979497014673558, -0.0018208759854308168, -0.0010030962913834553, 0.0, 103.2888002038349, 0.0], [-0.00023751324447371573, -0.0003496632025151155, -0.0009508896442483988, 0.0, 0.0, 103.28922459367612]], 'compliance_tensor': [[2.6, -0.6, -0.6, -0.0, 0.0, -0.0], [-0.6, 2.6, -0.6, -0.0, 0.0, 0.0], [-0.6, -0.6, 2.6, 0.0, -0.0, 0.0], [-0.0, -0.0, 0.0, 9.7, -0.0, 0.0], [0.0, 0.0, -0.0, -0.0, 9.7, -0.0], [-0.0, 0.0, 0.0, 0.0, -0.0, 9.7]], 'warnings': [], 'nsites': 4}",0.0
235,mp-865898,TiZnCo2,"{'Ti': 1.0, 'Zn': 1.0, 'Co': 2.0}",0.18772422300201794,7.7961961744060755,"{'G_Reuss': 87.0, 'G_VRH': 89.0, 'G_Voigt': 91.0, 'G_Voigt_Reuss_Hill': 89.0, 'K_Reuss': 190.0, 'K_VRH': 190.0, 'K_Voigt': 190.0, 'K_Voigt_Reuss_Hill': 190.0, 'elastic_anisotropy': 0.25, 'elastic_tensor': [[280.0, 144.0, 144.0, 0.0, 0.0, 0.0], [144.0, 280.0, 144.0, 0.0, 0.0, 0.0], [144.0, 144.0, 280.0, 0.0, 0.0, 0.0], [0.0, 0.0, 0.0, 107.0, 0.0, 0.0], [0.0, 0.0, 0.0, 0.0, 107.0, 0.0], [0.0, 0.0, 0.0, 0.0, 0.0, 107.0]], 'homogeneous_poisson': 0.3, 'poisson_ratio': 0.3, 'universal_anisotropy': 0.25, 'elastic_tensor_original': [[280.99184812863786, 140.94383572041977, 140.94358540633635, 4.8159575780498594e-05, 0.00018134653846094956, -2.2822930692995195e-05], [144.9175160662032, 278.4278119667345, 144.91863631533013, 0.00021496837771700538, 9.412577728825316e-05, 0.0005039541477473299], [147.32929717079932, 147.3284080473221, 280.8396088323805, -0.0003060962895980216, -0.00013463297270432863, 4.869747862949563e-06], [0.00011371001950416935, 0.00011263335335790845, 0.00011123335382938528, 107.01430367368533, 0.0, 0.0], [0.00013550668563643242, 0.00013930668491209032, 0.00013541335251423202, 0.0, 107.0143022870169, 0.0], [-4.705000203866351e-05, -4.9213335949631366e-05, -5.0960001690025676e-05, 0.0, 0.0, 107.0143260803739]], 'compliance_tensor': [[5.5, -1.9, -1.9, -0.0, 0.0, 0.0], [-1.9, 5.5, -1.9, 0.0, -0.0, 0.0], [-1.9, -1.9, 5.5, 0.0, 0.0, -0.0], [-0.0, 0.0, 0.0, 9.3, 0.0, 0.0], [0.0, -0.0, 0.0, 0.0, 9.3, -0.0], [0.0, 0.0, -0.0, 0.0, -0.0, 9.3]], 'warnings': [], 'nsites': 4}",0.0
236,mp-865916,TiVRe2,"{'Ti': 1.0, 'V': 1.0, 'Re': 2.0}",0.12995416459871584,13.403563577525125,"{'G_Reuss': 114.0, 'G_VRH': 115.0, 'G_Voigt': 116.0, 'G_Voigt_Reuss_Hill': 115.0, 'K_Reuss': 255.0, 'K_VRH': 255.0, 'K_Voigt': 255.0, 'K_Voigt_Reuss_Hill': 255.0, 'elastic_anisotropy': 0.08, 'elastic_tensor': [[435.0, 165.0, 165.0, 0.0, 0.0, 0.0], [165.0, 435.0, 165.0, 0.0, 0.0, 0.0], [165.0, 165.0, 435.0, 0.0, 0.0, 0.0], [0.0, 0.0, 0.0, 104.0, 0.0, 0.0], [0.0, 0.0, 0.0, 0.0, 104.0, 0.0], [0.0, 0.0, 0.0, 0.0, 0.0, 104.0]], 'homogeneous_poisson': 0.3, 'poisson_ratio': 0.3, 'universal_anisotropy': 0.08, 'elastic_tensor_original': [[432.7018995404433, 166.2766383114288, 166.2766383114288, 0.0, 0.0, 0.0], [166.0979758803887, 434.14552239703403, 166.0979758803887, 0.0, 0.0, 0.0], [163.62857601007536, 163.62562364502156, 438.04902510775327, -0.00011495051989905324, -4.708143473824465e-05, -9.962910384864144e-05], [-0.0012114402541265352, -0.0014009728874630452, -0.0012588329504329358, 104.00374801095046, 0.0, 0.0], [-0.0006539500954501954, -0.00031792367147094407, -0.00025828741981032843, 0.0, 104.00241688751176, 0.0], [-2.249242240758683e-05, 8.596094969430899e-05, 0.00034455997441035994, 0.0, 0.0, 104.00227954738342]], 'compliance_tensor': [[2.9, -0.8, -0.8, -0.0, 0.0, 0.0], [-0.8, 2.9, -0.8, 0.0, -0.0, 0.0], [-0.8, -0.8, 2.9, 0.0, 0.0, -0.0], [-0.0, 0.0, 0.0, 9.6, 0.0, 0.0], [0.0, -0.0, 0.0, 0.0, 9.6, 0.0], [0.0, 0.0, -0.0, 0.0, 0.0, 9.6]], 'warnings': [], 'nsites': 4}",0.0
237,mp-866140,TiGaPd2,"{'Ti': 1.0, 'Ga': 1.0, 'Pd': 2.0}",0.15491008303989237,8.94388309728109,"{'G_Reuss': -23.0, 'G_VRH': 5.0, 'G_Voigt': 33.0, 'G_Voigt_Reuss_Hill': 5.0, 'K_Reuss': 164.0, 'K_VRH': 164.0, 'K_Voigt': 164.0, 'K_Voigt_Reuss_Hill': 164.0, 'elastic_anisotropy': -12.33, 'elastic_tensor': [[154.0, 169.0, 169.0, 0.0, 0.0, 0.0], [169.0, 154.0, 169.0, 0.0, 0.0, 0.0], [169.0, 169.0, 154.0, 0.0, 0.0, 0.0], [0.0, 0.0, 0.0, 60.0, 0.0, 0.0], [0.0, 0.0, 0.0, 0.0, 60.0, 0.0], [0.0, 0.0, 0.0, 0.0, 0.0, 60.0]], 'homogeneous_poisson': 0.48, 'poisson_ratio': 0.48, 'universal_anisotropy': -12.33, 'elastic_tensor_original': [[152.51310587839316, 170.64913852386766, 170.64913852386766, 0.0, 0.0, 0.0], [170.65010703920413, 152.5138885847122, 170.65010703920413, 0.0, 0.0, 0.0], [166.68846056007095, 166.68902135288192, 158.41556199823594, -8.168287136695761e-05, 4.278626595412065e-05, -0.0001145244382052189], [-0.005115095654680091, -0.006612425358444426, -0.008031688410988102, 60.49269551528244, 0.0, 0.0], [0.00016688663365090035, 0.00017289663246056959, 0.00016571996721351538, 0.0, 60.496857311125716, 0.0], [0.004453559118896106, 0.004718352399840475, 0.004358879137627774, 0.0, 0.0, 60.498364304160894]], 'compliance_tensor': [[-44.2, 23.1, 23.1, -0.0, 0.0, 0.0], [23.1, -44.2, 23.1, 0.0, -0.0, 0.0], [23.1, 23.1, -44.2, 0.0, 0.0, -0.0], [-0.0, 0.0, 0.0, 16.5, 0.0, 0.0], [0.0, -0.0, 0.0, 0.0, 16.5, 0.0], [0.0, 0.0, -0.0, 0.0, 0.0, 16.5]], 'warnings': ['Elastic tensor has a negative eigenvalue', 'c11 and c12 are within 5% or c12 is greater than c11', 'c11 and c13 are within 5% or c13 is greater than c11', 'c11 and c23 are within 5% or c23 is greater than c11', 'One or more K, G below 2 GPa'], 'nsites': 4}",0.0
238,mp-866168,TiInPd2,"{'Ti': 1.0, 'In': 1.0, 'Pd': 2.0}",0.1648933603103771,9.226915698480555,"{'G_Reuss': -9.0, 'G_VRH': 13.0, 'G_Voigt': 35.0, 'G_Voigt_Reuss_Hill': 13.0, 'K_Reuss': 141.0, 'K_VRH': 141.0, 'K_Voigt': 141.0, 'K_Voigt_Reuss_Hill': 141.0, 'elastic_anisotropy': -23.53, 'elastic_tensor': [[137.0, 143.0, 143.0, 0.0, 0.0, 0.0], [143.0, 137.0, 143.0, 0.0, 0.0, 0.0], [143.0, 143.0, 137.0, 0.0, 0.0, 0.0], [0.0, 0.0, 0.0, 61.0, 0.0, 0.0], [0.0, 0.0, 0.0, 0.0, 61.0, 0.0], [0.0, 0.0, 0.0, 0.0, 0.0, 61.0]], 'homogeneous_poisson': 0.46, 'poisson_ratio': 0.46, 'universal_anisotropy': -23.53, 'elastic_tensor_original': [[136.57622303026696, 143.4946452622559, 143.4946452622559, 0.0, 0.0, 0.0], [143.50073104434375, 136.57939850247988, 143.50073104434375, 0.0, 0.0, 0.0], [143.49777959816282, 143.49777959816282, 136.5766078614579, 0.0, 0.0, 0.0], [-0.0005486198245160056, -0.0006891731128897374, -0.0006849897808956585, 60.717870811828206, 0.0, 0.0], [-0.000367173215887297, -0.0002759865783857969, -0.0001546832838554227, 0.0, 60.718390601661966, 0.0], [0.00013948662204999376, 0.00043882652630184343, 0.0004466331904711507, 0.0, 0.0, 60.71841129165533]], 'compliance_tensor': [[-95.5, 49.0, 49.0, 0.0, 0.0, -0.0], [49.0, -95.5, 49.0, -0.0, 0.0, 0.0], [49.0, 49.0, -95.5, 0.0, -0.0, 0.0], [0.0, -0.0, 0.0, 16.5, 0.0, 0.0], [0.0, 0.0, -0.0, 0.0, 16.5, 0.0], [-0.0, 0.0, 0.0, 0.0, 0.0, 16.5]], 'warnings': ['Elastic tensor has a negative eigenvalue', 'c11 and c12 are within 5% or c12 is greater than c11', 'c11 and c13 are within 5% or c13 is greater than c11', 'c11 and c23 are within 5% or c23 is greater than c11', 'One or more K, G below 2 GPa'], 'nsites': 4}",0.0
239,mp-866218,Ti2MnRh,"{'Ti': 2.0, 'Mn': 1.0, 'Rh': 1.0}",0.14296272555980058,7.479172389493153,"{'G_Reuss': 77.0, 'G_VRH': 81.0, 'G_Voigt': 85.0, 'G_Voigt_Reuss_Hill': 81.0, 'K_Reuss': 190.0, 'K_VRH': 190.0, 'K_Voigt': 190.0, 'K_Voigt_Reuss_Hill': 190.0, 'elastic_anisotropy': 0.52, 'elastic_tensor': [[349.0, 110.0, 110.0, 0.0, 0.0, 0.0], [110.0, 349.0, 110.0, 0.0, 0.0, 0.0], [110.0, 110.0, 349.0, 0.0, 0.0, 0.0], [0.0, 0.0, 0.0, 62.0, 0.0, 0.0], [0.0, 0.0, 0.0, 0.0, 62.0, 0.0], [0.0, 0.0, 0.0, 0.0, 0.0, 62.0]], 'homogeneous_poisson': 0.31, 'poisson_ratio': 0.31, 'universal_anisotropy': 0.52, 'elastic_tensor_original': [[347.51166294904, 110.17801667473958, 110.17720104969506, 0.0001621225199187299, -0.00010754701914964969, -0.00023193585337866283], [111.08768765444921, 351.49014409983675, 111.08768765444921, 0.0, 0.0, 0.0], [108.660314820735, 108.66187850306599, 348.973457530876, -8.978291419689248e-05, 0.00017647816229590164, 0.00019139519850905213], [-0.0006036500481630475, -0.0007216197802290091, -0.0007619697971283433, 62.49445153321235, 0.0, 0.0], [0.0011677230706166855, 0.0009589598398516088, 0.0010922730724536999, 0.0, 62.493393487659915, 0.0], [0.00199602251822967, 0.0020346157647462, 0.0022509856802336936, 0.0, 0.0, 62.493736399530455]], 'compliance_tensor': [[3.4, -0.8, -0.8, -0.0, 0.0, 0.0], [-0.8, 3.4, -0.8, 0.0, -0.0, 0.0], [-0.8, -0.8, 3.4, 0.0, 0.0, -0.0], [-0.0, 0.0, 0.0, 16.0, -0.0, -0.0], [0.0, -0.0, 0.0, -0.0, 16.0, -0.0], [0.0, 0.0, -0.0, -0.0, -0.0, 16.0]], 'warnings': [], 'nsites': 4}",0.0
240,mp-867123,TaTiOs2,"{'Ta': 1.0, 'Ti': 1.0, 'Os': 2.0}",0.11962854540467419,16.24397965392071,"{'G_Reuss': 97.0, 'G_VRH': 101.0, 'G_Voigt': 104.0, 'G_Voigt_Reuss_Hill': 101.0, 'K_Reuss': 268.0, 'K_VRH': 268.0, 'K_Voigt': 268.0, 'K_Voigt_Reuss_Hill': 268.0, 'elastic_anisotropy': 0.39, 'elastic_tensor': [[364.0, 220.0, 220.0, 0.0, 0.0, 0.0], [220.0, 364.0, 220.0, 0.0, 0.0, 0.0], [220.0, 220.0, 364.0, 0.0, 0.0, 0.0], [0.0, 0.0, 0.0, 126.0, 0.0, 0.0], [0.0, 0.0, 0.0, 0.0, 126.0, 0.0], [0.0, 0.0, 0.0, 0.0, 0.0, 126.0]], 'homogeneous_poisson': 0.33, 'poisson_ratio': 0.33, 'universal_anisotropy': 0.39, 'elastic_tensor_original': [[364.0992628904414, 220.3640512623456, 220.3640512623456, 0.0, 0.0, 0.0], [220.36567873859917, 364.1009886469777, 220.36567873859917, 0.0, 0.0, 0.0], [220.3682367375627, 220.3682367375627, 364.10457567771846, 0.0, 0.0, 0.0], [0.0002625202125083642, 0.00026221025931582497, 0.00025313692204112796, 126.07490662015297, 0.0, 0.0], [0.00010361076704461441, 5.125730653767447e-05, 0.00011621077679916311, 0.0, 126.07491560026212, 0.0], [-0.00013974953539387005, -0.00011928284608769451, -0.00020992958454988715, 0.0, 0.0, 126.07503895718676]], 'compliance_tensor': [[5.1, -1.9, -1.9, 0.0, 0.0, -0.0], [-1.9, 5.1, -1.9, -0.0, 0.0, 0.0], [-1.9, -1.9, 5.1, 0.0, -0.0, 0.0], [0.0, -0.0, 0.0, 7.9, -0.0, -0.0], [0.0, 0.0, -0.0, -0.0, 7.9, -0.0], [-0.0, 0.0, 0.0, -0.0, -0.0, 7.9]], 'warnings': [], 'nsites': 4}",0.0
241,mp-9227,Ti3Se4,"{'Ti': 3.0, 'Se': 4.0}",0.1652309829315498,5.002866288217043,,0.0