,mp_id,Formula,Composition,IPF,Density,Elastic_Tensor,E_above_Hull
336,mp-757031,Mg2TiO4,"{'Mg': 2.0, 'Ti': 1.0, 'O': 4.0}",0.5331708346280016,3.429076180124355,"{'G_Reuss': 67.0, 'G_VRH': 72.0, 'G_Voigt': 77.0, 'G_Voigt_Reuss_Hill': 72.0, 'K_Reuss': 147.0, 'K_VRH': 147.0, 'K_Voigt': 147.0, 'K_Voigt_Reuss_Hill': 147.0, 'elastic_anisotropy': 0.76, 'elastic_tensor': [[259.0, 66.0, 116.0, 0.0, 0.0, 0.0], [66.0, 259.0, 116.0, 0.0, 0.0, 0.0], [116.0, 116.0, 205.0, 0.0, 0.0, 0.0], [0.0, 0.0, 0.0, 99.0, 0.0, 0.0], [0.0, 0.0, 0.0, 0.0, 99.0, 0.0], [0.0, 0.0, 0.0, 0.0, 0.0, 45.0]], 'homogeneous_poisson': 0.29, 'poisson_ratio': 0.29, 'universal_anisotropy': 0.76, 'elastic_tensor_original': [[259.32680384120135, 66.1794411126425, 116.37508194078255, 0.0, 0.0, 0.0], [66.19314707886144, 259.3209538620167, 116.40940046248674, 0.0, 0.0, 0.0], [115.86632924205611, 115.86632924205611, 204.92351888370317, 0.0, 0.0, 0.0], [1.759999071673965e-06, 7.82666157952566e-06, -1.1536671768286322e-05, 98.55742540875893, 0.0, 0.0], [5.523330416315093e-06, -4.6999632719447026e-07, -1.6696666295312632e-05, 0.0, 98.55742598542412, 0.0], [-2.1500010528782696e-06, -1.7033342961588834e-06, 1.166667549571174e-06, 0.0, 0.0, 45.08015215353627]], 'compliance_tensor': [[5.2, -0.0, -2.9, -0.0, 0.0, 0.0], [-0.0, 5.2, -2.9, 0.0, -0.0, -0.0], [-2.9, -2.9, 8.2, 0.0, 0.0, -0.0], [-0.0, 0.0, 0.0, 10.1, -0.0, -0.0], [0.0, -0.0, 0.0, -0.0, 10.1, 0.0], [0.0, -0.0, -0.0, -0.0, 0.0, 22.2]], 'warnings': [], 'nsites': 28}",0.0
337,mp-762447,Mg3Ti9O20,"{'Mg': 3.0, 'Ti': 9.0, 'O': 20.0}",0.5280794441945514,3.6321471822847613,,0.0
338,mp-766393,Li7Ti11O24,"{'Li': 7.0, 'Ti': 11.0, 'O': 24.0}",0.5556482456144101,3.526545894891368,,0.8655207142869159
339,mp-766437,MgTi5O10,"{'Mg': 1.0, 'Ti': 5.0, 'O': 10.0}",0.5259811537284523,3.7226351623282765,,0.0
340,mp-770806,Sm2TiO5,"{'Sm': 2.0, 'Ti': 1.0, 'O': 5.0}",0.51510709641199,6.106304037956477,,0.0
341,mp-774263,Li13Ti28O56,"{'Li': 13.0, 'Ti': 28.0, 'O': 56.0}",0.547765178563517,3.639819474409079,,0.5575442268064279
342,mp-774567,Er2TiO5,"{'Er': 2.0, 'Ti': 1.0, 'O': 5.0}",0.4970885866593657,7.115623223436979,,0.0
343,mp-8291,BaTiF6,"{'Ba': 1.0, 'Ti': 1.0, 'F': 6.0}",0.20946939662790875,4.121344465635651,"{'G_Reuss': 21.0, 'G_VRH': 22.0, 'G_Voigt': 22.0, 'G_Voigt_Reuss_Hill': 22.0, 'K_Reuss': 48.0, 'K_VRH': 49.0, 'K_Voigt': 49.0, 'K_Voigt_Reuss_Hill': 49.0, 'elastic_anisotropy': 0.41, 'elastic_tensor': [[81.0, 37.0, 26.0, 1.0, 0.0, 0.0], [37.0, 81.0, 26.0, -1.0, 0.0, 0.0], [26.0, 26.0, 98.0, 0.0, 0.0, 0.0], [1.0, -1.0, 0.0, 16.0, 0.0, 0.0], [0.0, 0.0, 0.0, 0.0, 16.0, 1.0], [0.0, 0.0, 0.0, 0.0, 1.0, 22.0]], 'homogeneous_poisson': 0.31, 'poisson_ratio': 0.31, 'universal_anisotropy': 0.41, 'elastic_tensor_original': [[83.28947967448684, 37.60365868682941, 25.87226155025159, -0.3177963962412642, 0.0, 0.0], [36.11940940566233, 79.07721264460463, 24.92922262057596, 0.8683732015411403, 0.0, 0.0], [25.939250891044214, 25.939257950370312, 97.97198571774395, 0.0, 0.0, 0.0], [-0.7010564769035313, 0.5012024318159237, -0.1440848166984505, 16.441024358211113, 0.0, 0.0], [0.0006113721970820004, -0.00012220643954276327, 0.0002975094470709669, 0.0004056292461273645, 16.39325309270686, -0.6504463044617254], [8.754674918731798e-05, -4.947342680093194e-05, 4.8006598211098097e-05, -4.920040169114819e-06, -0.17257796136960604, 21.859667863723605]], 'compliance_tensor': [[16.1, -6.6, -2.5, -0.7, -0.0, -0.0], [-6.6, 16.1, -2.5, 0.7, 0.0, -0.0], [-2.5, -2.5, 11.5, -0.0, 0.0, 0.0], [-0.7, 0.7, -0.0, 61.0, -0.0, 0.0], [-0.0, 0.0, 0.0, -0.0, 61.0, -1.4], [-0.0, -0.0, 0.0, 0.0, -1.4, 45.5]], 'warnings': [], 'nsites': 8}",0.0
344,mp-861637,Ti2AlTc,"{'Ti': 2.0, 'Al': 1.0, 'Tc': 1.0}",0.1314144029664836,5.893565944131917,"{'G_Reuss': 57.0, 'G_VRH': 60.0, 'G_Voigt': 63.0, 'G_Voigt_Reuss_Hill': 60.0, 'K_Reuss': 158.0, 'K_VRH': 158.0, 'K_Voigt': 158.0, 'K_Voigt_Reuss_Hill': 158.0, 'elastic_anisotropy': 0.52, 'elastic_tensor': [[212.0, 131.0, 131.0, 0.0, 0.0, 0.0], [131.0, 212.0, 131.0, 0.0, 0.0, 0.0], [131.0, 131.0, 212.0, 0.0, 0.0, 0.0], [0.0, 0.0, 0.0, 77.0, 0.0, 0.0], [0.0, 0.0, 0.0, 0.0, 77.0, 0.0], [0.0, 0.0, 0.0, 0.0, 0.0, 77.0]], 'homogeneous_poisson': 0.33, 'poisson_ratio': 0.33, 'universal_anisotropy': 0.52, 'elastic_tensor_original': [[212.02358863983233, 131.41249481007563, 131.41077443831273, -0.0011832486694983947, -0.000984043013725584, -0.003501249750129378], [131.41371183303286, 212.0237327662546, 131.41272117544048, -0.0011189694769102258, -0.0011705096174107537, -0.003760312581192856], [130.97460163462202, 130.9740027960528, 212.7142867675266, -0.0016850404511121867, -0.0016278037343898189, -0.005219189882113405], [0.00028490860883848, 0.00012276633613722936, 0.00010540145618151225, 77.39737483338305, -3.6309997881730176e-05, -1.2356668006716835e-05], [0.00011029959937039398, 0.00027265914638698974, 8.402032580638427e-05, -3.691334561953488e-05, 77.39729146306024, -1.2356669317370853e-05], [0.00014280407558155483, -4.732958596771577e-05, 0.00037551916198047953, -1.2310004491584438e-05, -1.2356671159433712e-05, 77.39747202243939]], 'compliance_tensor': [[8.9, -3.4, -3.4, -0.0, -0.0, -0.0], [-3.4, 8.9, -3.4, 0.0, 0.0, -0.0], [-3.4, -3.4, 8.9, 0.0, -0.0, 0.0], [-0.0, 0.0, 0.0, 12.9, -0.0, -0.0], [-0.0, 0.0, -0.0, -0.0, 12.9, 0.0], [-0.0, -0.0, 0.0, -0.0, 0.0, 12.9]], 'warnings': [], 'nsites': 4}",0.0
345,mp-863727,LiTiRh2,"{'Li': 1.0, 'Ti': 1.0, 'Rh': 2.0}",0.16583310538204674,7.881916365009485,"{'G_Reuss': 62.0, 'G_VRH': 62.0, 'G_Voigt': 62.0, 'G_Voigt_Reuss_Hill': 62.0, 'K_Reuss': 154.0, 'K_VRH': 154.0, 'K_Voigt': 154.0, 'K_Voigt_Reuss_Hill': 154.0, 'elastic_anisotropy': 0.01, 'elastic_tensor': [[241.0, 110.0, 110.0, 0.0, 0.0, 0.0], [110.0, 241.0, 110.0, 0.0, 0.0, 0.0], [110.0, 110.0, 241.0, 0.0, 0.0, 0.0], [0.0, 0.0, 0.0, 60.0, 0.0, 0.0], [0.0, 0.0, 0.0, 0.0, 60.0, 0.0], [0.0, 0.0, 0.0, 0.0, 0.0, 60.0]], 'homogeneous_poisson': 0.32, 'poisson_ratio': 0.32, 'universal_anisotropy': 0.01, 'elastic_tensor_original': [[242.3558178507384, 109.86865502002149, 109.8686794206015, 1.7984651005304053e-05, -0.0001668141542520956, -0.00029621542246640144], [112.95105344370154, 243.86392926064335, 112.95000093059728, -0.00013407286652449078, -1.9668832370349257e-05, -0.0003897877371171863], [108.31060347293143, 108.3092526782077, 237.1081677559737, 0.00011417863538385603, -0.00015122137479966826, 8.470176254891475e-05], [6.424672075725319e-05, 6.929338822108554e-05, 6.516675283522185e-05, 59.698842579075446, 0.0, 0.0], [-1.1573385365137507e-05, -3.414671610836255e-05, -5.573337879510403e-05, 0.0, 59.6989022624034, 0.0], [-6.31900399381388e-05, -6.143670874317873e-05, -4.688001433436786e-05, 0.0, 0.0, 59.698898792503556]], 'compliance_tensor': [[5.8, -1.8, -1.8, -0.0, -0.0, 0.0], [-1.8, 5.8, -1.8, 0.0, -0.0, -0.0], [-1.8, -1.8, 5.8, -0.0, 0.0, -0.0], [-0.0, 0.0, -0.0, 16.8, -0.0, -0.0], [-0.0, -0.0, 0.0, -0.0, 16.8, -0.0], [0.0, -0.0, -0.0, -0.0, -0.0, 16.8]], 'warnings': [], 'nsites': 4}",0.0
346,mp-865531,TiMn2Al,"{'Ti': 1.0, 'Mn': 2.0, 'Al': 1.0}",0.1163411465266228,5.794348410543372,"{'G_Reuss': 83.0, 'G_VRH': 85.0, 'G_Voigt': 86.0, 'G_Voigt_Reuss_Hill': 85.0, 'K_Reuss': 157.0, 'K_VRH': 157.0, 'K_Voigt': 157.0, 'K_Voigt_Reuss_Hill': 157.0, 'elastic_anisotropy': 0.17, 'elastic_tensor': [[247.0, 112.0, 112.0, 0.0, 0.0, 0.0], [112.0, 247.0, 112.0, 0.0, 0.0, 0.0], [112.0, 112.0, 247.0, 0.0, 0.0, 0.0], [0.0, 0.0, 0.0, 98.0, 0.0, 0.0], [0.0, 0.0, 0.0, 0.0, 98.0, 0.0], [0.0, 0.0, 0.0, 0.0, 0.0, 98.0]], 'homogeneous_poisson': 0.27, 'poisson_ratio': 0.27, 'universal_anisotropy': 0.17, 'elastic_tensor_original': [[246.49789792333735, 111.49851514267611, 111.49851514267611, 0.0, 0.0, 0.0], [111.49957068672691, 246.50220246822596, 111.49957068672691, 0.0, 0.0, 0.0], [111.5046723717913, 111.5046723717913, 246.5080516125862, 0.0, 0.0, 0.0], [0.00034957099568053325, 9.895757945177078e-05, 0.0004539008140788303, 98.43911421379589, 0.0, 0.0], [0.0007044081335557791, 0.0008363184556305001, 0.00034132833276280473, 0.0, 98.4389890913114, 0.0], [-0.00038394393166993503, -0.00044420731581257955, -0.00028109414623510553, 0.0, 0.0, 98.4393323115431]], 'compliance_tensor': [[5.6, -1.8, -1.8, -0.0, -0.0, -0.0], [-1.8, 5.6, -1.8, 0.0, 0.0, 0.0], [-1.8, -1.8, 5.6, 0.0, 0.0, -0.0], [-0.0, 0.0, 0.0, 10.2, 0.0, 0.0], [-0.0, 0.0, 0.0, 0.0, 10.2, 0.0], [-0.0, 0.0, -0.0, 0.0, 0.0, 10.2]], 'warnings': [], 'nsites': 4}",0.0
347,mp-865649,Ti2TcRh,"{'Ti': 2.0, 'Tc': 1.0, 'Rh': 1.0}",0.1442832965705615,8.248625335895005,"{'G_Reuss': 91.0, 'G_VRH': 94.0, 'G_Voigt': 97.0, 'G_Voigt_Reuss_Hill': 94.0, 'K_Reuss': 204.0, 'K_VRH': 204.0, 'K_Voigt': 204.0, 'K_Voigt_Reuss_Hill': 204.0, 'elastic_anisotropy': 0.28, 'elastic_tensor': [[371.0, 121.0, 121.0, 0.0, 0.0, 0.0], [121.0, 371.0, 121.0, 0.0, 0.0, 0.0], [121.0, 121.0, 371.0, 0.0, 0.0, 0.0], [0.0, 0.0, 0.0, 77.0, 0.0, 0.0], [0.0, 0.0, 0.0, 0.0, 77.0, 0.0], [0.0, 0.0, 0.0, 0.0, 0.0, 77.0]], 'homogeneous_poisson': 0.3, 'poisson_ratio': 0.3, 'universal_anisotropy': 0.28, 'elastic_tensor_original': [[370.17735713268127, 121.317694561605, 121.31985599650295, 0.00018173815741699345, 0.0005113832117183856, -0.000564067655045659], [120.9242723795842, 369.63180978774284, 120.92276625519075, -0.00011735110595079577, -0.00022935990328656124, 0.0003051601738866929], [119.92125002778192, 119.91967307140838, 372.67216007021744, 0.0018022801236356925, 0.000308122091258909, -5.0772486174643256e-05], [0.0010824836495970666, 0.0011200470074315815, 0.0011182170457299213, 77.49942092959832, 0.0, 0.0], [-0.0009519631405361428, -0.0009863333601709612, -0.000922999992799873, 0.0, 77.49959859631768, 0.0], [-0.00037484368655452257, -0.0004219936192089302, -0.000249967056003945, 0.0, 0.0, 77.49965399930133]], 'compliance_tensor': [[3.2, -0.8, -0.8, 0.0, -0.0, 0.0], [-0.8, 3.2, -0.8, 0.0, 0.0, -0.0], [-0.8, -0.8, 3.2, -0.0, 0.0, 0.0], [0.0, 0.0, -0.0, 12.9, 0.0, -0.0], [-0.0, 0.0, 0.0, 0.0, 12.9, -0.0], [0.0, -0.0, 0.0, -0.0, -0.0, 12.9]], 'warnings': [], 'nsites': 4}",0.0
348,mp-865728,Ti2ReNi,"{'Ti': 2.0, 'Re': 1.0, 'Ni': 1.0}",0.14519036049025477,9.791110986112407,"{'G_Reuss': 78.0, 'G_VRH': 79.0, 'G_Voigt': 80.0, 'G_Voigt_Reuss_Hill': 79.0, 'K_Reuss': 192.0, 'K_VRH': 192.0, 'K_Voigt': 192.0, 'K_Voigt_Reuss_Hill': 192.0, 'elastic_anisotropy': 0.11, 'elastic_tensor': [[280.0, 149.0, 149.0, 0.0, 0.0, 0.0], [149.0, 280.0, 149.0, 0.0, 0.0, 0.0], [149.0, 149.0, 280.0, 0.0, 0.0, 0.0], [0.0, 0.0, 0.0, 89.0, 0.0, 0.0], [0.0, 0.0, 0.0, 0.0, 89.0, 0.0], [0.0, 0.0, 0.0, 0.0, 0.0, 89.0]], 'homogeneous_poisson': 0.32, 'poisson_ratio': 0.32, 'universal_anisotropy': 0.11, 'elastic_tensor_original': [[281.7665912777641, 150.28706875039086, 150.28706875039086, 0.0, 0.0, 0.0], [149.8087744482515, 281.68047429843944, 149.8087744482515, 0.0, 0.0, 0.0], [145.42170225939148, 145.42170225939148, 277.64545532490473, 0.0, 0.0, 0.0], [-0.017807376739852835, -0.013122649849751181, -0.013725951035692447, 88.67681330899467, 0.0, 0.0], [0.06086832684362926, 0.06111619410319822, 0.060136385228033974, 0.0, 88.67876977367477, 0.0], [0.0007156912422550887, 0.0006965612005237996, 0.0006080114308899974, 0.0, 0.0, 88.67652990519053]], 'compliance_tensor': [[5.6, -2.0, -2.0, 0.0, -0.0, -0.0], [-2.0, 5.6, -2.0, -0.0, -0.0, 0.0], [-2.0, -2.0, 5.6, -0.0, 0.0, -0.0], [0.0, -0.0, -0.0, 11.3, -0.0, 0.0], [-0.0, -0.0, 0.0, -0.0, 11.3, -0.0], [-0.0, 0.0, -0.0, 0.0, -0.0, 11.3]], 'warnings': [], 'nsites': 4}",0.0
349,mp-865730,TiZnAu2,"{'Ti': 1.0, 'Zn': 1.0, 'Au': 2.0}",0.23444023302567493,12.572718828222012,"{'G_Reuss': 11.0, 'G_VRH': 26.0, 'G_Voigt': 41.0, 'G_Voigt_Reuss_Hill': 26.0, 'K_Reuss': 135.0, 'K_VRH': 135.0, 'K_Voigt': 135.0, 'K_Voigt_Reuss_Hill': 135.0, 'elastic_anisotropy': 12.77, 'elastic_tensor': [[142.0, 131.0, 131.0, 0.0, 0.0, 0.0], [131.0, 142.0, 131.0, 0.0, 0.0, 0.0], [131.0, 131.0, 142.0, 0.0, 0.0, 0.0], [0.0, 0.0, 0.0, 65.0, 0.0, 0.0], [0.0, 0.0, 0.0, 0.0, 65.0, 0.0], [0.0, 0.0, 0.0, 0.0, 0.0, 65.0]], 'homogeneous_poisson': 0.41, 'poisson_ratio': 0.41, 'universal_anisotropy': 12.77, 'elastic_tensor_original': [[141.1513368677149, 131.70173252270558, 131.70173252270558, 0.0, 0.0, 0.0], [131.70624300629126, 141.15575882309, 131.70624300629126, 0.0, 0.0, 0.0], [130.95422108557577, 130.95422108557577, 142.91490196417033, 0.0, 0.0, 0.0], [0.006816441557281936, 0.006887194872180864, 0.006884508206213547, 64.59604805923793, 0.0, 0.0], [-0.005777251828044942, -0.005684381852243516, -0.005766591830824487, 0.0, 64.59590975927397, 0.0], [0.02148261773595097, 0.021415981086646, 0.02112159449668452, 0.0, 0.0, 64.59473789624593]], 'compliance_tensor': [[65.6, -31.6, -31.6, 0.0, 0.0, -0.0], [-31.6, 65.6, -31.6, -0.0, 0.0, 0.0], [-31.6, -31.6, 65.6, 0.0, -0.0, 0.0], [0.0, -0.0, 0.0, 15.5, -0.0, -0.0], [0.0, 0.0, -0.0, -0.0, 15.5, -0.0], [-0.0, 0.0, 0.0, -0.0, -0.0, 15.5]], 'warnings': [], 'nsites': 4}",0.0
350,mp-865768,Ti2MnOs,"{'Ti': 2.0, 'Mn': 1.0, 'Os': 1.0}",0.13426412727622636,10.009062644775774,"{'G_Reuss': 88.0, 'G_VRH': 89.0, 'G_Voigt': 91.0, 'G_Voigt_Reuss_Hill': 89.0, 'K_Reuss': 206.0, 'K_VRH': 206.0, 'K_Voigt': 206.0, 'K_Voigt_Reuss_Hill': 206.0, 'elastic_anisotropy': 0.19, 'elastic_tensor': [[357.0, 130.0, 130.0, 0.0, 0.0, 0.0], [130.0, 357.0, 130.0, 0.0, 0.0, 0.0], [130.0, 130.0, 357.0, 0.0, 0.0, 0.0], [0.0, 0.0, 0.0, 76.0, 0.0, 0.0], [0.0, 0.0, 0.0, 0.0, 76.0, 0.0], [0.0, 0.0, 0.0, 0.0, 0.0, 76.0]], 'homogeneous_poisson': 0.31, 'poisson_ratio': 0.31, 'universal_anisotropy': 0.19, 'elastic_tensor_original': [[355.39352385061125, 130.4460060979659, 130.44601782841713, 0.00019917827454459837, -1.236884317083844e-05, 0.0001572439062460461], [130.38182677223816, 355.3355030796826, 130.38103612386305, 1.2807737605932705e-05, -8.043738010454932e-05, -7.489135042472176e-05], [129.69391856914834, 129.69391856914834, 359.7393339104206, 0.0, 0.0, 0.0], [0.0020695889119008055, 0.0023808659162621202, 0.0022335190897429177, 76.21677819523119, 0.0, 0.0], [-0.0006755373995348468, -0.0005572839379138194, -0.0006272006804306041, 0.0, 76.2170416888504, 0.0], [0.0008140275497810794, 0.0008232775598149048, 0.0008855909607512932, 0.0, 0.0, 76.21709557890885]], 'compliance_tensor': [[3.5, -0.9, -0.9, -0.0, 0.0, -0.0], [-0.9, 3.5, -0.9, -0.0, -0.0, 0.0], [-0.9, -0.9, 3.5, 0.0, -0.0, -0.0], [-0.0, -0.0, 0.0, 13.1, -0.0, -0.0], [0.0, -0.0, -0.0, -0.0, 13.1, -0.0], [-0.0, 0.0, -0.0, -0.0, -0.0, 13.1]], 'warnings': [], 'nsites': 4}",0.0
351,mp-865807,Ti2MoIr,"{'Ti': 2.0, 'Mo': 1.0, 'Ir': 1.0}",0.1472562006172479,10.429707910141847,"{'G_Reuss': 88.0, 'G_VRH': 89.0, 'G_Voigt': 89.0, 'G_Voigt_Reuss_Hill': 89.0, 'K_Reuss': 210.0, 'K_VRH': 210.0, 'K_Voigt': 210.0, 'K_Voigt_Reuss_Hill': 210.0, 'elastic_anisotropy': 0.1, 'elastic_tensor': [[350.0, 140.0, 140.0, 0.0, 0.0, 0.0], [140.0, 350.0, 140.0, 0.0, 0.0, 0.0], [140.0, 140.0, 350.0, 0.0, 0.0, 0.0], [0.0, 0.0, 0.0, 79.0, 0.0, 0.0], [0.0, 0.0, 0.0, 0.0, 79.0, 0.0], [0.0, 0.0, 0.0, 0.0, 0.0, 79.0]], 'homogeneous_poisson': 0.32, 'poisson_ratio': 0.32, 'universal_anisotropy': 0.1, 'elastic_tensor_original': [[351.23907980288385, 140.09775508296278, 140.09775508296278, 0.0, 0.0, 0.0], [139.26094955318774, 347.15043903454824, 139.26094955318774, 0.0, 0.0, 0.0], [140.08430319033096, 140.08430319033096, 351.22907299515174, 0.0, 0.0, 0.0], [-3.536333329449072e-05, -2.853333330260536e-05, -3.112333329954792e-05, 78.99306231911831, 0.0, 0.0], [-7.169333325574729e-05, -6.993666659171914e-05, -6.94433332586338e-05, 0.0, 78.99304488245167, 0.0], [5.7369999940146986e-05, 5.485999994199393e-05, 5.9039999938137176e-05, 0.0, 0.0, 78.99305780245164]], 'compliance_tensor': [[3.7, -1.1, -1.1, 0.0, -0.0, -0.0], [-1.1, 3.7, -1.1, -0.0, 0.0, -0.0], [-1.1, -1.1, 3.7, -0.0, -0.0, 0.0], [0.0, -0.0, -0.0, 12.7, -0.0, -0.0], [-0.0, 0.0, -0.0, -0.0, 12.7, -0.0], [-0.0, -0.0, 0.0, -0.0, -0.0, 12.7]], 'warnings': [], 'nsites': 4}",0.0
352,mp-865840,Ti2TcIr,"{'Ti': 2.0, 'Tc': 1.0, 'Ir': 1.0}",0.14673184839946257,10.735713796405204,"{'G_Reuss': 113.0, 'G_VRH': 116.0, 'G_Voigt': 119.0, 'G_Voigt_Reuss_Hill': 116.0, 'K_Reuss': 226.0, 'K_VRH': 226.0, 'K_Voigt': 226.0, 'K_Voigt_Reuss_Hill': 226.0, 'elastic_anisotropy': 0.26, 'elastic_tensor': [[431.0, 124.0, 124.0, 0.0, 0.0, 0.0], [124.0, 431.0, 124.0, 0.0, 0.0, 0.0], [124.0, 124.0, 431.0, 0.0, 0.0, 0.0], [0.0, 0.0, 0.0, 97.0, 0.0, 0.0], [0.0, 0.0, 0.0, 0.0, 97.0, 0.0], [0.0, 0.0, 0.0, 0.0, 0.0, 97.0]], 'homogeneous_poisson': 0.28, 'poisson_ratio': 0.28, 'universal_anisotropy': 0.26, 'elastic_tensor_original': [[431.4850503271749, 123.94632457511526, 123.94632457511526, 0.0, 0.0, 0.0], [123.73702454904296, 430.40686106623184, 123.73702454904296, 0.0, 0.0, 0.0], [125.09688852397919, 125.09688852397919, 430.4943976762839, 0.0, 0.0, 0.0], [-6.458002524483328e-05, 8.862670131757102e-05, -0.0003263401275856375, 96.57808844155079, 0.0, 0.0], [6.620002588261305e-05, 0.00011647004553702519, 0.00022840342263029192, 0.0, 96.57802725819354, 0.0], [-0.00040694015909624947, -2.323000908164533e-05, 0.0001599000625169237, 0.0, 0.0, 96.57820276159548]], 'compliance_tensor': [[2.7, -0.6, -0.6, 0.0, 0.0, -0.0], [-0.6, 2.7, -0.6, -0.0, 0.0, 0.0], [-0.6, -0.6, 2.7, 0.0, -0.0, -0.0], [0.0, -0.0, 0.0, 10.4, -0.0, -0.0], [0.0, 0.0, -0.0, -0.0, 10.4, 0.0], [-0.0, 0.0, -0.0, -0.0, 0.0, 10.4]], 'warnings': [], 'nsites': 4}",0.0
353,mp-865878,Ti2TcNi,"{'Ti': 2.0, 'Tc': 1.0, 'Ni': 1.0}",0.15135615151453718,7.393032893959293,"{'G_Reuss': 72.0, 'G_VRH': 72.0, 'G_Voigt': 73.0, 'G_Voigt_Reuss_Hill': 72.0, 'K_Reuss': 177.0, 'K_VRH': 177.0, 'K_Voigt': 177.0, 'K_Voigt_Reuss_Hill': 177.0, 'elastic_anisotropy': 0.05, 'elastic_tensor': [[261.0, 134.0, 134.0, 0.0, 0.0, 0.0], [134.0, 261.0, 134.0, 0.0, 0.0, 0.0], [134.0, 134.0, 261.0, 0.0, 0.0, 0.0], [0.0, 0.0, 0.0, 79.0, 0.0, 0.0], [0.0, 0.0, 0.0, 0.0, 79.0, 0.0], [0.0, 0.0, 0.0, 0.0, 0.0, 79.0]], 'homogeneous_poisson': 0.32, 'poisson_ratio': 0.32, 'universal_anisotropy': 0.05, 'elastic_tensor_original': [[253.53424915096585, 127.75194348672584, 127.75194348672584, 0.0, 0.0, 0.0], [135.6314081400312, 264.03445753802777, 135.6319305027231, 1.2751801022581888e-05, 8.300700665642929e-06, -0.00016168321296556663], [139.35320544603016, 139.35160989127985, 266.81893875027504, 6.872661717147959e-05, 0.00033948355425459157, 0.00019784088896649142], [-0.0003936699521178979, -0.0003579921665565471, -0.0003600238623946951, 78.60598641568501, 0.0, 0.0], [-0.004817761160387939, -0.004611528134202674, -0.004601634176503871, 0.0, 78.6053596935251, 0.0], [0.000742120087712004, 0.0007394196740412015, 0.0007299353844189967, 0.0, 0.0, 78.60599253987598]], 'compliance_tensor': [[5.9, -2.0, -2.0, 0.0, 0.0, -0.0], [-2.0, 5.9, -2.0, -0.0, -0.0, -0.0], [-2.0, -2.0, 5.9, -0.0, 0.0, 0.0], [0.0, -0.0, -0.0, 12.7, -0.0, 0.0], [0.0, -0.0, 0.0, -0.0, 12.7, -0.0], [-0.0, -0.0, 0.0, 0.0, -0.0, 12.7]], 'warnings': [], 'nsites': 4}",0.0