,mp_id,Formula,Composition,IPF,Density,Elastic_Tensor,E_above_Hull
490,mp-1025550,Ti2GaN,"{'Ti': 2.0, 'Ga': 1.0, 'N': 1.0}",0.15370416027068876,5.682010841432831,"{'G_Reuss': 109.0, 'G_VRH': 109.0, 'G_Voigt': 109.0, 'G_Voigt_Reuss_Hill': 109.0, 'K_Reuss': 159.0, 'K_VRH': 159.0, 'K_Voigt': 159.0, 'K_Voigt_Reuss_Hill': 159.0, 'elastic_anisotropy': 0.03, 'elastic_tensor': [[301.0, 81.0, 95.0, 0.0, 0.0, 0.0], [81.0, 301.0, 95.0, 0.0, 0.0, 0.0], [95.0, 95.0, 281.0, 0.0, 0.0, 0.0], [0.0, 0.0, 0.0, 117.0, 0.0, 0.0], [0.0, 0.0, 0.0, 0.0, 117.0, 0.0], [0.0, 0.0, 0.0, 0.0, 0.0, 110.0]], 'homogeneous_poisson': 0.22, 'poisson_ratio': 0.22, 'universal_anisotropy': 0.03, 'elastic_tensor_original': [[302.8142843086211, 77.71350557217102, 95.60612045336948, 0.0, 0.0, 0.0], [79.22129625514773, 304.4670076604938, 97.07087920133917, 0.0, 0.0, 0.0], [94.58047777878363, 94.5804749789061, 281.4301915916263, 0.0, 0.0, 0.0], [0.0009341367528261435, 0.0008019267406333755, 0.001033973428701289, 116.49795918848667, 0.0, 0.0], [9.73471721375162e-05, -7.566705948931418e-07, 8.453710562116975e-05, 0.0, 116.72424331754766, 0.0], [1.2829920652207355e-05, 7.210648780857148e-05, 9.741983023989614e-05, 0.0, 0.0, 107.38567615564116]], 'compliance_tensor': [[3.8, -0.7, -1.1, -0.0, -0.0, -0.0], [-0.7, 3.8, -1.1, -0.0, 0.0, -0.0], [-1.1, -1.1, 4.3, 0.0, 0.0, 0.0], [0.0, 0.0, -0.0, 8.6, -0.0, 0.0], [0.0, 0.0, 0.0, -0.0, 8.6, 0.0], [-0.0, -0.0, 0.0, -0.0, 0.0, 9.1]], 'warnings': [], 'nsites': 8}",0.0
491,mp-1029799,Sr4TiN4,"{'Sr': 4.0, 'Ti': 1.0, 'N': 4.0}",0.2683621693145904,4.468439931681672,"{'G_Reuss': 30.0, 'G_VRH': 33.0, 'G_Voigt': 36.0, 'G_Voigt_Reuss_Hill': 33.0, 'K_Reuss': 73.0, 'K_VRH': 73.0, 'K_Voigt': 73.0, 'K_Voigt_Reuss_Hill': 73.0, 'elastic_anisotropy': 1.04, 'elastic_tensor': [[104.0, 62.0, 43.0, -9.0, -9.0, 1.0], [62.0, 121.0, 52.0, 0.0, 15.0, -7.0], [43.0, 52.0, 123.0, 14.0, 6.0, 4.0], [-9.0, 0.0, 14.0, 38.0, -3.0, 2.0], [-9.0, 15.0, 6.0, -3.0, 34.0, -2.0], [1.0, -7.0, 4.0, 2.0, -2.0, 44.0]], 'homogeneous_poisson': 0.3, 'poisson_ratio': 0.3, 'universal_anisotropy': 1.04, 'elastic_tensor_original': [[122.84095183297676, 48.96246929214541, 46.36144664113083, -5.828509530323768, 9.160956122416367, -11.680011028105039], [49.21496151381615, 131.1415681701805, 53.33751229900705, 10.914331163918792, 13.168632592490594, 5.345959961136619], [45.874900389805674, 53.22545951876627, 110.22599837561629, -9.693750632307776, -9.683061395500275, 4.976031424098226], [-5.606939176377745, 10.578386683160186, -9.572677488496561, 35.96259191610019, -5.25998335679724, 2.5923631495819444], [8.790726688499172, 13.353015463710788, -9.683309642292459, -5.21444140079908, 33.37321517021769, 1.1821510422693189], [-11.96372063678178, 5.005008708225256, 4.879637647067323, 2.616692997835101, 1.321289540888503, 39.275153257822566]], 'compliance_tensor': [[17.5, -8.6, -3.6, 6.1, 9.1, -1.2], [-8.6, 15.0, -2.8, -1.7, -8.2, 2.6], [-3.6, -2.8, 11.3, -5.0, -2.0, -1.3], [6.1, -1.7, -5.0, 29.8, 5.2, -1.0], [9.1, -8.2, -2.0, 5.2, 35.6, -0.0], [-1.2, 2.6, -1.3, -1.0, -0.0, 23.2]], 'warnings': [], 'nsites': 18}",0.0
492,mp-10739,TiPRu,"{'Ti': 1.0, 'P': 1.0, 'Ru': 1.0}",0.1079178614485961,7.173677446230221,"{'G_Reuss': 103.0, 'G_VRH': 103.0, 'G_Voigt': 104.0, 'G_Voigt_Reuss_Hill': 103.0, 'K_Reuss': 220.0, 'K_VRH': 221.0, 'K_Voigt': 221.0, 'K_Voigt_Reuss_Hill': 221.0, 'elastic_anisotropy': 0.05, 'elastic_tensor': [[374.0, 149.0, 156.0, 0.0, 0.0, 0.0], [149.0, 374.0, 156.0, 0.0, 0.0, 0.0], [156.0, 156.0, 320.0, 0.0, 0.0, 0.0], [0.0, 0.0, 0.0, 101.0, 0.0, 0.0], [0.0, 0.0, 0.0, 0.0, 101.0, 0.0], [0.0, 0.0, 0.0, 0.0, 0.0, 113.0]], 'homogeneous_poisson': 0.3, 'poisson_ratio': 0.3, 'universal_anisotropy': 0.05, 'elastic_tensor_original': [[376.0328285284422, 148.0864454922468, 157.07904145782555, 0.0, 0.0, 0.0], [147.5622350604915, 374.2497845232216, 157.56033415068978, 0.0, 0.0, 0.0], [155.2800405301303, 155.28010966446658, 320.1201668617173, 0.0, 0.0, 0.0], [2.677003421568265e-05, -8.857011320270344e-05, 0.0002880970348936673, 101.42755282513767, 0.0, 0.0], [3.036674252958538e-06, 3.278008188015761e-05, 0.0001269769838360841, 0.0, 101.2936546900019, 0.0], [5.960347555512179e-05, -0.0001261636343837064, -6.787016195113982e-05, 0.0, 0.0, 112.06519831858249]], 'compliance_tensor': [[3.6, -0.9, -1.3, -0.0, -0.0, 0.0], [-0.9, 3.6, -1.3, 0.0, -0.0, 0.0], [-1.3, -1.3, 4.4, -0.0, 0.0, -0.0], [0.0, 0.0, -0.0, 9.9, 0.0, -0.0], [-0.0, -0.0, 0.0, 0.0, 9.9, 0.0], [0.0, 0.0, -0.0, -0.0, -0.0, 8.9]], 'warnings': [], 'nsites': 9}",0.0
493,mp-10755,TiFeSb,"{'Ti': 1.0, 'Fe': 1.0, 'Sb': 1.0}",0.14279689597396342,7.055233350704827,"{'G_Reuss': 52.0, 'G_VRH': 53.0, 'G_Voigt': 53.0, 'G_Voigt_Reuss_Hill': 53.0, 'K_Reuss': 114.0, 'K_VRH': 114.0, 'K_Voigt': 114.0, 'K_Voigt_Reuss_Hill': 114.0, 'elastic_anisotropy': 0.11, 'elastic_tensor': [[198.0, 71.0, 71.0, 0.0, 0.0, 0.0], [71.0, 198.0, 71.0, 0.0, 0.0, 0.0], [71.0, 71.0, 198.0, 0.0, 0.0, 0.0], [0.0, 0.0, 0.0, 47.0, 0.0, 0.0], [0.0, 0.0, 0.0, 0.0, 47.0, 0.0], [0.0, 0.0, 0.0, 0.0, 0.0, 47.0]], 'homogeneous_poisson': 0.3, 'poisson_ratio': 0.3, 'universal_anisotropy': 0.11, 'elastic_tensor_original': [[202.7125536939434, 76.5738497216732, 76.5738497216732, 0.0, 0.0, 0.0], [76.57643647989595, 202.71317328641146, 76.57643647989595, 0.0, 0.0, 0.0], [61.26787595830127, 61.26787595830127, 187.68100812703554, 0.0, 0.0, 0.0], [-6.252836525435832e-05, 0.00023669858570068644, 0.0004146482632102296, 46.829117740789705, 0.0, 0.0], [0.0007809933800494682, -4.83525627100586e-05, 0.0006648103661250981, 0.0, 46.8296628507618, 0.0], [0.0009343335081340926, 0.0009415265894167582, 0.0012669932381234065, 0.0, 0.0, 46.82947912453227]], 'compliance_tensor': [[6.3, -1.7, -1.7, 0.0, 0.0, 0.0], [-1.7, 6.3, -1.7, 0.0, 0.0, 0.0], [-1.7, -1.7, 6.3, -0.0, 0.0, 0.0], [0.0, 0.0, -0.0, 21.4, 0.0, 0.0], [0.0, 0.0, 0.0, 0.0, 21.4, 0.0], [0.0, 0.0, 0.0, 0.0, 0.0, 21.4]], 'warnings': [], 'nsites': 3}",0.0
494,mp-1095128,TiPOs,"{'Ti': 1.0, 'P': 1.0, 'Os': 1.0}",0.10850439432601368,10.628452717473712,,0.0
495,mp-1101441,Rb4TiO4,"{'Rb': 4.0, 'Ti': 1.0, 'O': 4.0}",0.5611898580967676,3.750212199308346,,0.5561058333336533
496,mp-1103158,TiGeIr,"{'Ti': 1.0, 'Ge': 1.0, 'Ir': 1.0}",0.13630507128070019,11.102640328614624,,0.0
497,mp-1103248,TiSiIr,"{'Ti': 1.0, 'Si': 1.0, 'Ir': 1.0}",0.11608984672298137,10.091857915023875,,0.0
498,mp-11073,Ti3In3Rh2,"{'Ti': 3.0, 'In': 3.0, 'Rh': 2.0}",0.15028307048900788,7.9926334816569184,"{'G_Reuss': 56.0, 'G_VRH': 56.0, 'G_Voigt': 56.0, 'G_Voigt_Reuss_Hill': 56.0, 'K_Reuss': 121.0, 'K_VRH': 122.0, 'K_Voigt': 122.0, 'K_Voigt_Reuss_Hill': 122.0, 'elastic_anisotropy': 0.02, 'elastic_tensor': [[205.0, 97.0, 79.0, 0.0, 0.0, 0.0], [97.0, 205.0, 79.0, 0.0, 0.0, 0.0], [79.0, 79.0, 182.0, 0.0, 0.0, 0.0], [0.0, 0.0, 0.0, 57.0, 0.0, 0.0], [0.0, 0.0, 0.0, 0.0, 57.0, 0.0], [0.0, 0.0, 0.0, 0.0, 0.0, 54.0]], 'homogeneous_poisson': 0.3, 'poisson_ratio': 0.3, 'universal_anisotropy': 0.02, 'elastic_tensor_original': [[205.0791315495927, 97.31917783203973, 79.68106040359991, 0.0, 0.0, 0.0], [96.95381579883846, 204.8104774036937, 78.63679594647395, 0.0, 0.0, 0.0], [78.051143063695, 78.05117298571038, 182.3324999361893, 0.0, 0.0, 0.0], [0.0002622364358615372, 6.180978500120585e-05, 1.444996544270961e-05, 56.9305662416907, 0.0, 0.0], [0.00031236601305970415, 0.0002661561097499081, 0.00013915970881630489, 0.0, 57.00634337071813, 0.0], [-1.8676610344347842e-05, 3.230340432917474e-05, 0.00015178682544385837, 0.0, 0.0, 54.02375902723667]], 'compliance_tensor': [[6.8, -2.5, -1.8, -0.0, -0.0, 0.0], [-2.5, 6.8, -1.8, 0.0, -0.0, 0.0], [-1.8, -1.8, 7.1, -0.0, 0.0, -0.0], [0.0, -0.0, -0.0, 17.6, 0.0, -0.0], [-0.0, 0.0, -0.0, 0.0, 17.6, 0.0], [0.0, 0.0, -0.0, 0.0, -0.0, 18.5]], 'warnings': [], 'nsites': 8}",0.0
499,mp-1112963,Cs3TiF6,"{'Cs': 3.0, 'Ti': 1.0, 'F': 6.0}",0.3781632982123122,4.097510095486806,,0.0
500,mp-1187417,Ti2MoPd,"{'Ti': 2.0, 'Mo': 1.0, 'Pd': 1.0}",0.15405785345002623,7.891304295271089,,0.0
501,mp-1187418,Ti2AlW,"{'Ti': 2.0, 'Al': 1.0, 'W': 1.0}",0.12957327346198724,7.898284005845514,,0.0
502,mp-1187422,Ti2CoOs,"{'Ti': 2.0, 'Co': 1.0, 'Os': 1.0}",0.14701058651952012,10.080883160174425,,0.0
503,mp-1188172,Ti5CuSb3,"{'Ti': 5.0, 'Cu': 1.0, 'Sb': 3.0}",0.14045647610287823,6.946839192531807,,0.0
504,mp-1188631,Ti(NbSe2)3,"{'Ti': 1.0, 'Nb': 3.0, 'Se': 6.0}",0.17123643026691937,6.380381479143726,,0.0
505,mp-1193657,Ti4Co4Si7,"{'Ti': 4.0, 'Co': 4.0, 'Si': 7.0}",0.11750794284509616,5.39365538339699,,0.0
506,mp-1195324,Pr2TiO5,"{'Pr': 2.0, 'Ti': 1.0, 'O': 5.0}",0.44253829775415954,5.527855375127187,,0.0
507,mp-1203892,Cs3Ti3Te11,"{'Cs': 3.0, 'Ti': 3.0, 'Te': 11.0}",0.26787361158966944,4.756958761625954,,0.0
508,mp-1204392,TiMnGe2,"{'Ti': 1.0, 'Mn': 1.0, 'Ge': 2.0}",0.12764551507979402,6.961322917432749,,0.0
509,mp-1205741,TiMnAs,"{'Ti': 1.0, 'Mn': 1.0, 'As': 1.0}",0.11850008505101164,7.0888443174864575,,0.0
510,mp-1206595,LiTiSe2,"{'Li': 1.0, 'Ti': 1.0, 'Se': 2.0}",0.19036911023148667,4.683430903120904,,0.0
511,mp-1206662,Cs2TiI6,"{'Cs': 2.0, 'Ti': 1.0, 'I': 6.0}",0.24968204063665675,4.27974510200224,,0.0
512,mp-1208228,Ti3NbAl2,"{'Ti': 3.0, 'Nb': 1.0, 'Al': 2.0}",0.12585221226849447,4.79910387104746,,0.0
513,mp-1217065,Ti8Cu3Ni,"{'Ti': 8.0, 'Cu': 3.0, 'Ni': 1.0}",0.16082427864141413,5.757515885485868,,0.0
514,mp-1217067,Ti2ReOs,"{'Ti': 2.0, 'Re': 1.0, 'Os': 1.0}",0.13273264737616075,13.062415753404803,,0.0
515,mp-1217093,Ti2NbAl,"{'Ti': 2.0, 'Nb': 1.0, 'Al': 1.0}",0.13023820127560887,5.315343155859415,,0.0
516,mp-1217103,Ti4C3N,"{'Ti': 4.0, 'C': 3.0, 'N': 1.0}",0.14589799463023584,4.98502231722009,,0.0
517,mp-1217107,Ti4CN3,"{'Ti': 4.0, 'C': 1.0, 'N': 3.0}",0.1740229408662615,5.214160310502364,,0.0
518,mp-1217142,Ti2CN,"{'Ti': 2.0, 'C': 1.0, 'N': 1.0}",0.15994518632032,5.10387287384949,,0.0
519,mp-1217144,Ti4AlGe7,"{'Ti': 4.0, 'Al': 1.0, 'Ge': 7.0}",0.12900376440731298,6.222592145033419,,0.0
520,mp-12192,La2Ti2O7,"{'La': 2.0, 'Ti': 2.0, 'O': 7.0}",0.5394614303824928,5.625570505065761,,0.0
521,mp-1222772,Li(TiTe2)5,"{'Li': 1.0, 'Ti': 5.0, 'Te': 10.0}",0.2455595469529164,5.822347455544521,,0.0
522,mp-1223931,K(Ti3Se4)2,"{'K': 1.0, 'Ti': 6.0, 'Se': 8.0}",0.21155072263973404,5.169029226756986,,0.0
523,mp-12527,Ti2Te2P,"{'Ti': 2.0, 'Te': 2.0, 'P': 1.0}",0.20860850877538947,5.513174125224249,"{'G_Reuss': 5.0, 'G_VRH': 14.0, 'G_Voigt': 23.0, 'G_Voigt_Reuss_Hill': 14.0, 'K_Reuss': 6.0, 'K_VRH': 21.0, 'K_Voigt': 35.0, 'K_Voigt_Reuss_Hill': 21.0, 'elastic_anisotropy': 23.33, 'elastic_tensor': [[117.0, 32.0, 3.0, -2.0, 0.0, 0.0], [32.0, 117.0, 3.0, 2.0, 0.0, 0.0], [3.0, 3.0, 7.0, 0.0, 0.0, 0.0], [-2.0, 2.0, 0.0, 3.0, 0.0, 0.0], [0.0, 0.0, 0.0, 0.0, 3.0, -2.0], [0.0, 0.0, 0.0, 0.0, -2.0, 43.0]], 'homogeneous_poisson': 0.22, 'poisson_ratio': 0.22, 'universal_anisotropy': 23.33, 'elastic_tensor_original': [[118.56806236008877, 29.627941888020782, 3.4689398665943507, 4.281591022537178, 0.0, 0.0], [29.929226859120394, 118.54877179521237, 4.438198260459431, -2.8478588398076776, 0.0, 0.0], [1.57963686377205, 1.579636403626114, 6.614436395559311, 0.0, 0.0, 0.0], [0.6297960278100548, -1.3128986837736558, -0.708602077980749, 2.6429566600575662, 0.0, 0.0], [0.007288949732479917, 0.006649072096961137, 0.014773012077312249, -0.0005397580054816399, 2.6845708632851797, 0.9595978940860337], [-0.02172222916110947, -0.01338791949447541, -0.05193748391618083, -0.011486212842703498, 0.9620779660973602, 40.74201442299056]], 'compliance_tensor': [[9.4, -2.6, -2.9, 7.3, -0.0, 0.0], [-2.6, 9.4, -2.9, -7.3, 0.0, 0.0], [-2.9, -2.9, 153.6, -0.0, -0.0, -0.0], [7.3, -7.3, -0.0, 384.2, 0.0, 0.0], [-0.0, 0.0, -0.0, 0.0, 384.2, 14.6], [0.0, 0.0, -0.0, 0.0, 14.6, 24.0]], 'warnings': [], 'nsites': 5}",0.0
524,mp-12537,Ti2GaC,"{'Ti': 2.0, 'Ga': 1.0, 'C': 1.0}",0.12897226386082103,5.332772544545805,"{'G_Reuss': 108.0, 'G_VRH': 108.0, 'G_Voigt': 109.0, 'G_Voigt_Reuss_Hill': 108.0, 'K_Reuss': 139.0, 'K_VRH': 139.0, 'K_Voigt': 139.0, 'K_Voigt_Reuss_Hill': 139.0, 'elastic_anisotropy': 0.04, 'elastic_tensor': [[304.0, 67.0, 62.0, 0.0, 0.0, 0.0], [67.0, 304.0, 62.0, 0.0, 0.0, 0.0], [62.0, 62.0, 264.0, 0.0, 0.0, 0.0], [0.0, 0.0, 0.0, 99.0, 0.0, 0.0], [0.0, 0.0, 0.0, 0.0, 99.0, 0.0], [0.0, 0.0, 0.0, 0.0, 0.0, 118.0]], 'homogeneous_poisson': 0.19, 'poisson_ratio': 0.19, 'universal_anisotropy': 0.04, 'elastic_tensor_original': [[304.87142952012607, 67.04885773029673, 61.371538554615775, 0.0, 0.0, 0.0], [66.50542701141127, 303.8620671521255, 60.72993834631542, 0.0, 0.0, 0.0], [62.56173732826812, 62.561731528922536, 264.3863407306096, 0.0, 0.0, 0.0], [-0.00014566989458915288, -0.00020041671114111897, 1.2966534584577654e-05, 98.8786002004871, 0.0, 0.0], [6.843972581227172e-05, 9.646542073169629e-05, -8.440121590266849e-05, 0.0, 99.21934724170148, 0.0], [9.181043365782963e-05, 0.00019291981153699863, 0.00024799594176478995, 0.0, 0.0, 117.39838527898394]], 'compliance_tensor': [[3.6, -0.7, -0.7, -0.0, -0.0, 0.0], [-0.7, 3.6, -0.7, -0.0, -0.0, 0.0], [-0.7, -0.7, 4.1, 0.0, -0.0, -0.0], [-0.0, -0.0, 0.0, 10.1, 0.0, 0.0], [-0.0, -0.0, -0.0, 0.0, 10.1, 0.0], [0.0, 0.0, -0.0, 0.0, 0.0, 8.5]], 'warnings': [], 'nsites': 8}",0.0
525,mp-13994,Ti3NiS6,"{'Ti': 3.0, 'Ni': 1.0, 'S': 6.0}",0.15700859430804526,3.8703081344258234,,0.1577304999997864
526,mp-14726,Na4TiO4,"{'Na': 4.0, 'Ti': 1.0, 'O': 4.0}",0.4761932045045653,2.5887893960587256,,0.0
527,mp-15201,Pr2Ti2O7,"{'Pr': 2.0, 'Ti': 2.0, 'O': 7.0}",0.5212493848648665,5.741020069800916,,0.0
528,mp-15293,TmTiGe,"{'Tm': 1.0, 'Ti': 1.0, 'Ge': 1.0}",0.16276514371190254,7.823329713983819,,0.0
529,mp-15502,Ba4TiP4,"{'Ba': 4.0, 'Ti': 1.0, 'P': 4.0}",0.20781034035966234,4.092482550898996,,0.0
530,mp-15503,Ba4TiAs4,"{'Ba': 4.0, 'Ti': 1.0, 'As': 4.0}",0.1995334718381352,4.729596369719718,,0.0
531,mp-19959,LuTiGe,"{'Lu': 1.0, 'Ti': 1.0, 'Ge': 1.0}",0.1440905008479095,8.124935850797321,,0.0
532,mp-20085,LaTiGe3,"{'La': 1.0, 'Ti': 1.0, 'Ge': 3.0}",0.14592334967016185,6.50800290053659,,0.0
533,mp-20268,TiGePd,"{'Ti': 1.0, 'Ge': 1.0, 'Pd': 1.0}",0.14872824669514756,7.962521710594004,"{'G_Reuss': 67.0, 'G_VRH': 69.0, 'G_Voigt': 71.0, 'G_Voigt_Reuss_Hill': 69.0, 'K_Reuss': 150.0, 'K_VRH': 150.0, 'K_Voigt': 151.0, 'K_Voigt_Reuss_Hill': 150.0, 'elastic_anisotropy': 0.33, 'elastic_tensor': [[210.0, 92.0, 120.0, 0.0, 0.0, 0.0], [92.0, 271.0, 120.0, 0.0, 0.0, 0.0], [120.0, 120.0, 215.0, 0.0, 0.0, 0.0], [0.0, 0.0, 0.0, 67.0, 0.0, 0.0], [0.0, 0.0, 0.0, 0.0, 95.0, 0.0], [0.0, 0.0, 0.0, 0.0, 0.0, 70.0]], 'homogeneous_poisson': 0.3, 'poisson_ratio': 0.3, 'universal_anisotropy': 0.33, 'elastic_tensor_original': [[215.22709235264298, 119.4793361306801, 119.67373764057916, 0.0, 0.0, 0.0], [119.87412135543268, 209.80556176470378, 91.37873462371549, 0.0, 0.0, 0.0], [119.4749041922452, 92.52286191591365, 271.40101321665674, 0.0, 0.0, 0.0], [-0.001925287989603556, -0.0024196168030453952, 0.0009098875685869144, 70.11502856960794, 0.0, 0.0], [-0.0003654793185262746, -0.0005322426329403752, -0.0002911194271299484, 0.0, 67.17694469794195, 0.0], [-0.0011702980701188926, 0.006458779674087248, 0.0022892003353700207, 0.0, 0.0, 94.94800935775255]], 'compliance_tensor': [[7.1, -0.9, -3.5, 0.0, -0.0, 0.0], [-0.9, 5.0, -2.3, 0.0, 0.0, 0.0], [-3.5, -2.3, 7.8, 0.0, 0.0, 0.0], [0.0, 0.0, 0.0, 14.9, 0.0, 0.0], [-0.0, 0.0, 0.0, 0.0, 10.5, 0.0], [0.0, 0.0, 0.0, 0.0, 0.0, 14.3]], 'warnings': [], 'nsites': 12}",0.0
534,mp-20315,Ti2InC,"{'Ti': 2.0, 'In': 1.0, 'C': 1.0}",0.14383771008215315,6.063190462834159,"{'G_Reuss': 95.0, 'G_VRH': 96.0, 'G_Voigt': 97.0, 'G_Voigt_Reuss_Hill': 96.0, 'K_Reuss': 126.0, 'K_VRH': 127.0, 'K_Voigt': 127.0, 'K_Voigt_Reuss_Hill': 127.0, 'elastic_anisotropy': 0.09, 'elastic_tensor': [[281.0, 66.0, 53.0, 0.0, 0.0, 0.0], [66.0, 281.0, 53.0, 0.0, 0.0, 0.0], [53.0, 53.0, 241.0, 0.0, 0.0, 0.0], [0.0, 0.0, 0.0, 83.0, 0.0, 0.0], [0.0, 0.0, 0.0, 0.0, 83.0, 0.0], [0.0, 0.0, 0.0, 0.0, 0.0, 108.0]], 'homogeneous_poisson': 0.2, 'poisson_ratio': 0.2, 'universal_anisotropy': 0.09, 'elastic_tensor_original': [[281.32347830288313, 66.01746264139952, 52.5099545752088, 0.0, 0.0, 0.0], [65.61078635394583, 280.94154535277846, 51.536453401691745, 0.0, 0.0, 0.0], [53.67385411548447, 53.6739359027428, 241.18732294835817, 0.0, 0.0, 0.0], [7.85898383501059e-05, 2.9459882515390956e-05, -1.3159983490827634e-05, 83.04201867868596, 0.0, 0.0], [0.00027178656451297623, 5.250983927588491e-05, 0.0002496467486120682, 0.0, 82.85968003459635, 0.0], [-0.00022961568298059815, -3.7319782070415975e-05, -0.0003693090594978326, 0.0, 0.0, 108.0655025143571]], 'compliance_tensor': [[3.9, -0.8, -0.7, 0.0, -0.0, 0.0], [-0.8, 3.9, -0.7, -0.0, -0.0, 0.0], [-0.7, -0.7, 4.4, -0.0, -0.0, -0.0], [0.0, -0.0, -0.0, 12.1, 0.0, -0.0], [-0.0, -0.0, -0.0, 0.0, 12.1, 0.0], [0.0, 0.0, -0.0, -0.0, 0.0, 9.3]], 'warnings': [], 'nsites': 8}",0.0
535,mp-20325,Ti3InC,"{'Ti': 3.0, 'In': 1.0, 'C': 1.0}",0.14810815620508558,5.857246750937356,"{'G_Reuss': 91.0, 'G_VRH': 92.0, 'G_Voigt': 93.0, 'G_Voigt_Reuss_Hill': 92.0, 'K_Reuss': 145.0, 'K_VRH': 145.0, 'K_Voigt': 145.0, 'K_Voigt_Reuss_Hill': 145.0, 'elastic_anisotropy': 0.12, 'elastic_tensor': [[292.0, 71.0, 71.0, 0.0, 0.0, 0.0], [71.0, 292.0, 71.0, 0.0, 0.0, 0.0], [71.0, 71.0, 292.0, 0.0, 0.0, 0.0], [0.0, 0.0, 0.0, 81.0, 0.0, 0.0], [0.0, 0.0, 0.0, 0.0, 81.0, 0.0], [0.0, 0.0, 0.0, 0.0, 0.0, 81.0]], 'homogeneous_poisson': 0.24, 'poisson_ratio': 0.24, 'universal_anisotropy': 0.12, 'elastic_tensor_original': [[292.280325862099, 71.30501052744623, 71.30501052744623, 0.0, 0.0, 0.0], [71.30592349940753, 292.28314036382733, 71.30592349940753, 0.0, 0.0, 0.0], [71.30099391955713, 71.30099391955713, 292.2790188997949, 0.0, 0.0, 0.0], [0.0002505333930842592, 0.000291350069487573, 0.00024742672567798984, 80.79299111205135, 0.0, 0.0], [-5.068334542093665e-05, 0.00013223336487021344, 8.81266876849324e-05, 0.0, 80.7931526720899, 0.0], [0.0004582634426293137, 0.0004607967765647508, 0.0002154267180447984, 0.0, 0.0, 80.79325290544716]], 'compliance_tensor': [[3.8, -0.7, -0.7, 0.0, -0.0, 0.0], [-0.7, 3.8, -0.7, 0.0, 0.0, -0.0], [-0.7, -0.7, 3.8, -0.0, 0.0, 0.0], [0.0, 0.0, -0.0, 12.4, -0.0, -0.0], [-0.0, 0.0, 0.0, -0.0, 12.4, -0.0], [0.0, -0.0, 0.0, -0.0, -0.0, 12.4]], 'warnings': [], 'nsites': 5}",0.0
536,mp-20869,GdTiGe,"{'Gd': 1.0, 'Ti': 1.0, 'Ge': 1.0}",0.14993091487034393,7.1264036944826135,,0.0
537,mp-21023,Ti3SnC2,"{'Ti': 3.0, 'Sn': 1.0, 'C': 2.0}",0.12899425080522056,5.906377007878856,"{'G_Reuss': 111.0, 'G_VRH': 112.0, 'G_Voigt': 112.0, 'G_Voigt_Reuss_Hill': 112.0, 'K_Reuss': 158.0, 'K_VRH': 158.0, 'K_Voigt': 159.0, 'K_Voigt_Reuss_Hill': 158.0, 'elastic_anisotropy': 0.03, 'elastic_tensor': [[328.0, 90.0, 76.0, 0.0, 0.0, 0.0], [90.0, 328.0, 76.0, 0.0, 0.0, 0.0], [76.0, 76.0, 289.0, 0.0, 0.0, 0.0], [0.0, 0.0, 0.0, 103.0, 0.0, 0.0], [0.0, 0.0, 0.0, 0.0, 103.0, 0.0], [0.0, 0.0, 0.0, 0.0, 0.0, 119.0]], 'homogeneous_poisson': 0.21, 'poisson_ratio': 0.21, 'universal_anisotropy': 0.03, 'elastic_tensor_original': [[328.6905713635051, 89.34871021316994, 75.81666755266237, 0.0, 0.0, -4.927517305898403e-06], [89.05781048306189, 328.98732859870984, 75.15151109866463, 0.0, 0.0, 0.0], [76.30437270589825, 76.30436904618136, 288.79417664059457, 0.0, 0.0, 0.0], [0.00010475990418338492, -0.0002554164330519425, 0.00026880642080960316, 103.01989783101591, 0.0, 0.0], [0.00014482973346467584, -3.9029928171199095e-05, 0.0001993896330547483, -7.999985277262644e-08, 103.35874432419419, 0.0], [0.05871788739266591, 0.04242704066380881, 0.06779857255906824, 0.0, 0.0, 119.03572749465482]], 'compliance_tensor': [[3.4, -0.8, -0.7, -0.0, 0.0, -0.0], [-0.8, 3.4, -0.7, 0.0, -0.0, -0.0], [-0.7, -0.7, 3.8, 0.0, -0.0, 0.0], [-0.0, 0.0, 0.0, 9.7, -0.0, -0.0], [0.0, -0.0, -0.0, -0.0, 9.7, 0.0], [-0.0, -0.0, 0.0, -0.0, 0.0, 8.4]], 'warnings': [], 'nsites': 12}",0.0