,mp_id,Formula,Composition,IPF,Density,Elastic_Tensor,E_above_Hull
372,mp-1080829,Ti6Ge2B,"{'Ti': 6.0, 'Ge': 2.0, 'B': 1.0}",0.14366761512913642,5.384935788052246,,0.0
373,mp-1103162,TiSiPd,"{'Ti': 1.0, 'Si': 1.0, 'Pd': 1.0}",0.12871782024872783,6.737347738487598,,0.0
374,mp-11560,TiSiRu,"{'Ti': 1.0, 'Si': 1.0, 'Ru': 1.0}",0.10353640110722764,6.828651218841114,"{'G_Reuss': 102.0, 'G_VRH': 103.0, 'G_Voigt': 105.0, 'G_Voigt_Reuss_Hill': 103.0, 'K_Reuss': 201.0, 'K_VRH': 202.0, 'K_Voigt': 203.0, 'K_Voigt_Reuss_Hill': 202.0, 'elastic_anisotropy': 0.15, 'elastic_tensor': [[280.0, 143.0, 151.0, 0.0, 0.0, 0.0], [143.0, 346.0, 131.0, 0.0, 0.0, 0.0], [151.0, 131.0, 352.0, 0.0, 0.0, 0.0], [0.0, 0.0, 0.0, 105.0, 0.0, 0.0], [0.0, 0.0, 0.0, 0.0, 116.0, 0.0], [0.0, 0.0, 0.0, 0.0, 0.0, 118.0]], 'homogeneous_poisson': 0.28, 'poisson_ratio': 0.28, 'universal_anisotropy': 0.15, 'elastic_tensor_original': [[352.26370031354077, 150.76769890460744, 130.88265306646446, 0.0, 0.0, 0.0], [150.3705630777371, 279.5601471420607, 142.52236529861435, 0.0, 0.0, 0.0], [132.09326195981058, 142.89970649835288, 345.57866443445334, 0.0, 0.0, 0.0], [-0.0003334133989152034, 0.00033854685702479267, -2.4776551548138593e-05, 118.38994476593908, 0.0, 0.0], [0.003451294205847081, 0.009148132312713086, 0.007986222018975144, 0.0, 104.51137290455931, 0.0], [-0.0005128167887970195, 0.0009247902202500407, -0.0011032035960742226, 0.0, 0.0, 116.25881095841903]], 'compliance_tensor': [[5.3, -1.5, -1.7, 0.0, 0.0, 0.0], [-1.5, 3.8, -0.8, 0.0, 0.0, 0.0], [-1.7, -0.8, 3.8, 0.0, 0.0, 0.0], [0.0, 0.0, 0.0, 9.6, 0.0, 0.0], [0.0, 0.0, 0.0, 0.0, 8.6, 0.0], [0.0, 0.0, 0.0, 0.0, 0.0, 8.4]], 'warnings': [], 'nsites': 18}",0.0
375,mp-1187245,TiMo2W,"{'Ti': 1.0, 'Mo': 2.0, 'W': 1.0}",0.13173495546915734,11.064118887311176,,0.0
376,mp-1187427,Ti2FeOs,"{'Ti': 2.0, 'Fe': 1.0, 'Os': 1.0}",0.16113248725240562,10.108796510111514,,0.0
377,mp-1187511,TiRe2Mo,"{'Ti': 1.0, 'Re': 2.0, 'Mo': 1.0}",0.12363714003968201,14.004696116679177,,0.0
378,mp-1191806,Mg3TiNi2,"{'Mg': 3.0, 'Ti': 1.0, 'Ni': 2.0}",0.1422698411656173,4.026106085223915,,0.0
379,mp-1193707,Ti2(Co7B2)3,"{'Ti': 2.0, 'Co': 21.0, 'B': 6.0}",0.1633732132612654,8.103966322550992,,0.0
380,mp-1197107,CsTi8F33,"{'Cs': 1.0, 'Ti': 8.0, 'F': 33.0}",0.13882311046401058,2.8032539378480736,,0.0
381,mp-1203502,KTi4Cl11,"{'K': 1.0, 'Ti': 4.0, 'Cl': 11.0}",0.12208270337865254,2.6807854895449656,,0.0
382,mp-1207858,Y6Ti4Al43,"{'Y': 6.0, 'Ti': 4.0, 'Al': 43.0}",0.09879854815112993,3.2895325779936804,,0.0
383,mp-1208283,Ti5CoSn3,"{'Ti': 5.0, 'Co': 1.0, 'Sn': 3.0}",0.13790225338850126,6.804269924820174,,0.0
384,mp-1209147,Sm6Ti4Al43,"{'Sm': 6.0, 'Ti': 4.0, 'Al': 43.0}",0.11586242561728444,3.8578732902090267,,0.0
385,mp-1210322,Nd6Ti4Al43,"{'Nd': 6.0, 'Ti': 4.0, 'Al': 43.0}",0.1215355948501291,3.7912570262079703,,0.0
386,mp-1212187,Hf3Ti2Ga3,"{'Hf': 3.0, 'Ti': 2.0, 'Ga': 3.0}",0.12507458009606798,9.481199452353302,,0.0
387,mp-1212360,Ho6Ti4Al43,"{'Ho': 6.0, 'Ti': 4.0, 'Al': 43.0}",0.09970305294297517,4.11933930791124,,0.0
388,mp-1212973,Eu3Ti2O7,"{'Eu': 3.0, 'Ti': 2.0, 'O': 7.0}",0.5469048109159295,7.051883175474814,,0.2627054166683962
389,mp-1216666,TiNbCr4,"{'Ti': 1.0, 'Nb': 1.0, 'Cr': 4.0}",0.2284273792646411,7.0314697066097285,,0.0
390,mp-1216707,TiNbC2,"{'Ti': 1.0, 'Nb': 1.0, 'C': 2.0}",0.11809140480607062,6.3074785939274385,,0.0
391,mp-1216709,TiNbB2,"{'Ti': 1.0, 'Nb': 1.0, 'B': 2.0}",0.12307785225254793,6.062525277930271,,0.0
392,mp-1217028,TiB2Mo,"{'Ti': 1.0, 'B': 2.0, 'Mo': 1.0}",0.12321295465478282,6.617403151742791,,0.0
393,mp-1217044,TiAlNi6,"{'Ti': 1.0, 'Al': 1.0, 'Ni': 6.0}",0.1521920115985691,7.675119148771566,,0.0
394,mp-1217148,Ti3VS6,"{'Ti': 3.0, 'V': 1.0, 'S': 6.0}",0.15448393303788316,3.695564579086696,,0.0
395,mp-1217247,Ti4CoNi,"{'Ti': 4.0, 'Co': 1.0, 'Ni': 1.0}",0.15734361156249757,5.790096780037652,,0.0
396,mp-1217600,Ti17CuP12,"{'Ti': 17.0, 'Cu': 1.0, 'P': 12.0}",0.12100373880990808,4.591098291492327,,0.0
397,mp-1217904,TaTiC2,"{'Ta': 1.0, 'Ti': 1.0, 'C': 2.0}",0.11912910001667701,9.762280859475009,,0.0
398,mp-1224029,K3Ti8O17,"{'K': 3.0, 'Ti': 8.0, 'O': 17.0}",0.5634893397081845,3.4859794389615435,,0.0
399,mp-1278696,TiFeO3,"{'Ti': 1.0, 'Fe': 1.0, 'O': 3.0}",0.5533741562394663,4.597795157756451,,0.0
400,mp-12990,Ti2AlC,"{'Ti': 2.0, 'Al': 1.0, 'C': 1.0}",0.11738355380417329,3.993100999294839,"{'G_Reuss': 112.0, 'G_VRH': 112.0, 'G_Voigt': 113.0, 'G_Voigt_Reuss_Hill': 112.0, 'K_Reuss': 137.0, 'K_VRH': 137.0, 'K_Voigt': 137.0, 'K_Voigt_Reuss_Hill': 137.0, 'elastic_anisotropy': 0.02, 'elastic_tensor': [[302.0, 62.0, 59.0, 0.0, 0.0, 0.0], [62.0, 302.0, 59.0, 0.0, 0.0, 0.0], [59.0, 59.0, 268.0, 0.0, 0.0, 0.0], [0.0, 0.0, 0.0, 106.0, 0.0, 0.0], [0.0, 0.0, 0.0, 0.0, 106.0, 0.0], [0.0, 0.0, 0.0, 0.0, 0.0, 120.0]], 'homogeneous_poisson': 0.18, 'poisson_ratio': 0.18, 'universal_anisotropy': 0.02, 'elastic_tensor_original': [[303.08882277291184, 61.39524026615209, 59.02315155083312, 0.0, 0.0, -1.1328105349233639e-05], [62.20966159179072, 302.30657311065863, 59.80898866678368, 0.0, 0.0, -5.689461878311765e-05], [59.05800773719941, 59.05797462003259, 268.26902338041, 0.0, 0.0, -1.1079021962680267e-05], [0.00013393699604607431, -8.74768817893304e-05, 0.00011975696117469318, 105.93506427249356, -1.992671567050544e-05, 0.0], [-0.000375072754326266, -0.00010986292389753495, 2.904695514857867e-05, -9.133334662165938e-07, 106.3908043932275, 0.0], [0.10187425276444509, 0.08990626995204586, 0.07712981486660846, 0.0, 0.0, 119.28384958639093]], 'compliance_tensor': [[3.6, -0.6, -0.7, -0.0, 0.0, 0.0], [-0.6, 3.6, -0.7, 0.0, -0.0, 0.0], [-0.7, -0.7, 4.0, -0.0, 0.0, -0.0], [0.0, 0.0, -0.0, 9.4, 0.0, 0.0], [-0.0, -0.0, 0.0, 0.0, 9.4, -0.0], [0.0, 0.0, -0.0, 0.0, -0.0, 8.3]], 'warnings': [], 'nsites': 8}",0.0
401,mp-13133,K2TiO3,"{'K': 2.0, 'Ti': 1.0, 'O': 3.0}",0.5780141504116724,2.923538536906473,,0.0
402,mp-13993,Ti3NiS6,"{'Ti': 3.0, 'Ni': 1.0, 'S': 6.0}",0.15685253391938575,3.8664611998401566,"{'G_Reuss': 44.0, 'G_VRH': 46.0, 'G_Voigt': 48.0, 'G_Voigt_Reuss_Hill': 46.0, 'K_Reuss': 71.0, 'K_VRH': 72.0, 'K_Voigt': 72.0, 'K_Voigt_Reuss_Hill': 72.0, 'elastic_anisotropy': 0.48, 'elastic_tensor': [[156.0, 37.0, 34.0, -0.0, 9.0, 0.0], [37.0, 156.0, 34.0, 0.0, -9.0, 0.0], [34.0, 34.0, 125.0, 0.0, 0.0, 0.0], [-0.0, 0.0, 0.0, 36.0, 0.0, -9.0], [9.0, -9.0, 0.0, 0.0, 36.0, -0.0], [0.0, 0.0, 0.0, -9.0, -0.0, 60.0]], 'homogeneous_poisson': 0.23, 'poisson_ratio': 0.23, 'universal_anisotropy': 0.48, 'elastic_tensor_original': [[155.95013073632003, 37.12879875409588, 34.07128330301639, -0.14888009619160728, -9.5709588665625, -0.12389866797282337], [37.25668631820926, 155.87400943225623, 34.463723816605864, -0.021941546408771127, 9.20941159893181, -0.035885030919225964], [33.77250005345401, 33.7724998933556, 125.26562931153696, 0.0, 0.0, -1.5119747432855828e-07], [0.11504207016539177, -0.323611882820259, -0.11647666512190955, 35.69687646622059, -0.011737323280301299, 9.225016974395604], [-9.168987236918921, 9.223533189175862, -0.3474402434278657, 0.057477705419161716, 35.86819862109074, 0.19170401666761036], [0.2223232884431825, 0.1962018238513158, 0.15182325514699488, 9.259525715227443, 0.17812372265376636, 60.08178387521199]], 'compliance_tensor': [[7.2, -1.5, -1.6, 0.0, -2.3, 0.0], [-1.5, 7.2, -1.6, -0.0, 2.3, 0.0], [-1.6, -1.6, 8.8, -0.0, 0.0, -0.0], [0.0, -0.0, -0.0, 29.1, 0.0, 4.5], [-2.3, 2.3, 0.0, 0.0, 29.1, 0.1], [0.0, 0.0, -0.0, 4.5, 0.1, 17.4]], 'warnings': [], 'nsites': 10}",0.0
403,mp-15500,Sr4TiP4,"{'Sr': 4.0, 'Ti': 1.0, 'P': 4.0}",0.17347408724706562,3.425914438155891,,0.0
404,mp-16481,TiAlAu,"{'Ti': 1.0, 'Al': 1.0, 'Au': 1.0}",0.1812551106667073,9.082770024482732,"{'G_Reuss': 57.0, 'G_VRH': 58.0, 'G_Voigt': 59.0, 'G_Voigt_Reuss_Hill': 58.0, 'K_Reuss': 125.0, 'K_VRH': 128.0, 'K_Voigt': 131.0, 'K_Voigt_Reuss_Hill': 128.0, 'elastic_anisotropy': 0.22, 'elastic_tensor': [[240.0, 102.0, 85.0, 0.0, 0.0, 0.0], [102.0, 240.0, 85.0, 0.0, 0.0, 0.0], [85.0, 85.0, 159.0, 0.0, 0.0, 0.0], [0.0, 0.0, 0.0, 51.0, 0.0, 0.0], [0.0, 0.0, 0.0, 0.0, 51.0, 0.0], [0.0, 0.0, 0.0, 0.0, 0.0, 69.0]], 'homogeneous_poisson': 0.3, 'poisson_ratio': 0.3, 'universal_anisotropy': 0.22, 'elastic_tensor_original': [[239.05922268841547, 100.93212716254509, 85.30558350803739, 0.0, 0.0, -1.2967231058095575e-06], [101.4681562299685, 241.70688959522778, 85.79139951658131, 0.0, 0.0, 3.135705785626955e-05], [84.82841083742257, 84.82845973506878, 158.91190898574774, 0.0, 0.0, 1.0979536760753953e-05], [-0.00010176653669287562, -0.00014450677283822977, -0.00013734981257122682, 50.87473333846932, 6.593336919351504e-06, 0.0], [-7.53833855141538e-05, 2.9303353618319262e-05, -7.703671999376232e-05, 4.6666698970142397e-08, 50.75859412262121, 0.0], [0.13185069119784623, 0.01669726942423158, 0.006255418349902584, 0.0, 0.0, 68.42067387901695]], 'compliance_tensor': [[5.6, -1.6, -2.1, -0.0, 0.0, 0.0], [-1.6, 5.6, -2.1, -0.0, -0.0, 0.0], [-2.1, -2.1, 8.6, 0.0, -0.0, -0.0], [-0.0, -0.0, 0.0, 19.7, 0.0, -0.0], [0.0, -0.0, -0.0, 0.0, 19.7, 0.0], [0.0, 0.0, -0.0, -0.0, 0.0, 14.5]], 'warnings': [], 'nsites': 6}",0.0
405,mp-18583,Ti4Si7Ni4,"{'Ti': 4.0, 'Si': 7.0, 'Ni': 4.0}",0.11118843847134724,5.28548083508166,,0.0
406,mp-19082,TiMnO3,"{'Ti': 1.0, 'Mn': 1.0, 'O': 3.0}",0.5147690148787912,4.465567989536367,"{'G_Reuss': 61.0, 'G_VRH': 64.0, 'G_Voigt': 68.0, 'G_Voigt_Reuss_Hill': 64.0, 'K_Reuss': 156.0, 'K_VRH': 159.0, 'K_Voigt': 162.0, 'K_Voigt_Reuss_Hill': 159.0, 'elastic_anisotropy': 0.57, 'elastic_tensor': [[291.0, 141.0, 93.0, 13.0, 9.0, 0.0], [141.0, 291.0, 93.0, -13.0, -9.0, 0.0], [93.0, 93.0, 223.0, 0.0, 0.0, 0.0], [13.0, -13.0, 0.0, 53.0, 0.0, -9.0], [9.0, -9.0, 0.0, 0.0, 53.0, 13.0], [0.0, 0.0, 0.0, -9.0, 13.0, 75.0]], 'homogeneous_poisson': 0.32, 'poisson_ratio': 0.32, 'universal_anisotropy': 0.57, 'elastic_tensor_original': [[290.98738355133304, 140.6811216684431, 93.28598099479103, -13.047009281719504, -8.428920265386445, -0.13571607401028682], [141.54549061578345, 290.60829437251203, 93.18578224466145, 13.220205961102888, 8.526588249352097, -0.0011812148094401576], [92.85174272357914, 92.8517072860846, 222.73116147027008, 0.0, 0.0, 8.309913798706979e-07], [-13.490860255647055, 12.846076010769805, 0.0890820237440176, 52.63643622381653, -0.0740037355748374, 9.181696832683084], [-9.276285257917516, 9.022950321548512, 0.32883447489531004, -0.0005091328053542912, 52.59822255598523, -13.175360540345006], [0.09637939092591445, 0.22996499585925484, 0.17594434226617486, 8.883987379040663, -13.159518898420258, 74.24868039584179]], 'compliance_tensor': [[4.996415996772332, -2.1729516256670633, -1.1794750977577244, -1.7930104046598125, -1.215838228009807, -1.3373966935227015e-07], [-2.1729516256670633, 4.996415842343071, -1.179475079530113, 1.7930103444061345, 1.2158382572139645, -1.3373966717533605e-07], [-1.1794750977577244, -1.1794750795301132, 5.475146307630139, -5.88179032539463e-16, 9.029331496687909e-17, 3.157115126579848e-08], [-1.7930104046598128, 1.7930103444061347, -4.3136345577201344e-16, 20.31436789786619, -2.718785707615157e-07, 2.43167651442793], [-1.2158382280098063, 1.2158382572139637, 1.9979329430485701e-16, -2.718785709093783e-07, 20.314368211804513, -3.5860208093196246], [-1.337396713006916e-07, -1.3373966473402414e-07, 3.1571151040392735e-08, 2.43167651442793, -3.5860208093196233, 14.33873509044953]], 'warnings': [], 'nsites': 10}",0.0
407,mp-20145,TiGaCo2,"{'Ti': 1.0, 'Ga': 1.0, 'Co': 2.0}",0.16547403144549316,7.8648054325560715,"{'G_Reuss': 65.0, 'G_VRH': 74.0, 'G_Voigt': 83.0, 'G_Voigt_Reuss_Hill': 74.0, 'K_Reuss': 185.0, 'K_VRH': 185.0, 'K_Voigt': 185.0, 'K_Voigt_Reuss_Hill': 185.0, 'elastic_anisotropy': 1.42, 'elastic_tensor': [[238.0, 159.0, 159.0, 0.0, 0.0, 0.0], [159.0, 238.0, 159.0, 0.0, 0.0, 0.0], [159.0, 159.0, 238.0, 0.0, 0.0, 0.0], [0.0, 0.0, 0.0, 112.0, 0.0, 0.0], [0.0, 0.0, 0.0, 0.0, 112.0, 0.0], [0.0, 0.0, 0.0, 0.0, 0.0, 112.0]], 'homogeneous_poisson': 0.32, 'poisson_ratio': 0.32, 'universal_anisotropy': 1.42, 'elastic_tensor_original': [[237.09623153558448, 158.42644964598261, 158.42644964598261, 0.0, 0.0, 0.0], [159.22680860077517, 235.1335209036574, 159.22680860077517, 0.0, 0.0, 0.0], [158.0160814220935, 158.02310412403767, 240.66672867603413, -0.00020275077584007304, 3.590980975225145e-06, 5.919133640829447e-05], [-1.0976680506909884e-05, -1.1000013871435306e-05, -1.1666681378271942e-05, 111.85404585534938, 0.0, 0.0], [-1.806668943565318e-06, 7.500009479340577e-07, -1.2966683017729776e-06, 0.0, 111.85404398201366, 0.0], [2.2816695440405824e-05, 2.207336116784148e-05, 2.456336430944713e-05, 0.0, 0.0, 111.85404525868194]], 'compliance_tensor': [[9.0, -3.6, -3.6, 0.0, -0.0, 0.0], [-3.6, 9.0, -3.6, 0.0, -0.0, -0.0], [-3.6, -3.6, 9.0, -0.0, 0.0, -0.0], [0.0, 0.0, -0.0, 8.9, -0.0, -0.0], [-0.0, -0.0, 0.0, -0.0, 8.9, -0.0], [0.0, -0.0, -0.0, -0.0, -0.0, 8.9]], 'warnings': [], 'nsites': 4}",0.0
408,mp-20255,TiCuSi,"{'Ti': 1.0, 'Cu': 1.0, 'Si': 1.0}",0.13380077907775537,5.577715167561554,"{'G_Reuss': 74.0, 'G_VRH': 77.0, 'G_Voigt': 80.0, 'G_Voigt_Reuss_Hill': 77.0, 'K_Reuss': 148.0, 'K_VRH': 148.0, 'K_Voigt': 149.0, 'K_Voigt_Reuss_Hill': 148.0, 'elastic_anisotropy': 0.4, 'elastic_tensor': [[241.0, 72.0, 116.0, 0.0, 0.0, 0.0], [72.0, 259.0, 122.0, 0.0, 0.0, 0.0], [116.0, 122.0, 217.0, 0.0, 0.0, 0.0], [0.0, 0.0, 0.0, 100.0, 0.0, 0.0], [0.0, 0.0, 0.0, 0.0, 92.0, 0.0], [0.0, 0.0, 0.0, 0.0, 0.0, 71.0]], 'homogeneous_poisson': 0.28, 'poisson_ratio': 0.28, 'universal_anisotropy': 0.4, 'elastic_tensor_original': [[216.85638283125672, 117.93993097897216, 122.97735947738015, 0.0, 0.0, 0.0], [115.0142786753851, 240.66334222983028, 73.37224413728775, 0.0, 0.0, 0.0], [120.93232088064549, 70.72672962691469, 258.5656316919026, 0.0, 0.0, 0.0], [0.0014480498215486018, 0.0006670199177988825, -9.14866553919224e-05, 71.398297821118, 0.0, 0.0], [-0.003324141801904817, -0.002685592170521873, -0.002967499221237115, 0.0, 99.94945806455625, 0.0], [0.006243918370652863, 0.006561674840867213, 0.0068666952822497235, 0.0, 0.0, 92.17244832150715]], 'compliance_tensor': [[5.6, -0.2, -2.9, 0.0, 0.0, 0.0], [-0.2, 5.3, -2.9, 0.0, 0.0, 0.0], [-2.9, -2.9, 7.8, 0.0, -0.0, 0.0], [0.0, 0.0, 0.0, 10.0, 0.0, 0.0], [0.0, 0.0, -0.0, 0.0, 10.8, 0.0], [0.0, 0.0, 0.0, 0.0, 0.0, 14.0]], 'warnings': [], 'nsites': 12}",0.0
409,mp-20626,DyTiGe,"{'Dy': 1.0, 'Ti': 1.0, 'Ge': 1.0}",0.16771724418647446,7.463817912747521,,0.0
410,mp-20918,ErTiSi,"{'Er': 1.0, 'Ti': 1.0, 'Si': 1.0}",0.12918577470741255,6.668027542528836,,0.0
411,mp-21457,Ti3Cu3O,"{'Ti': 3.0, 'Cu': 3.0, 'O': 1.0}",0.26001398557321076,6.554651228069355,,0.0
412,mp-21606,TiMnSi2,"{'Ti': 1.0, 'Mn': 1.0, 'Si': 2.0}",0.09558141586085529,4.9981574095448575,,0.0
413,mp-21639,KTiF4,"{'K': 1.0, 'Ti': 1.0, 'F': 4.0}",0.2367220366836998,2.764781561721752,,0.0
414,mp-21662,TiFeSi2,"{'Ti': 1.0, 'Fe': 1.0, 'Si': 2.0}",0.12595933635788817,5.1432356119067775,"{'G_Reuss': 116.0, 'G_VRH': 116.0, 'G_Voigt': 116.0, 'G_Voigt_Reuss_Hill': 116.0, 'K_Reuss': 180.0, 'K_VRH': 180.0, 'K_Voigt': 181.0, 'K_Voigt_Reuss_Hill': 180.0, 'elastic_anisotropy': 0.03, 'elastic_tensor': [[317.0, 94.0, 98.0, 0.0, 0.0, 0.0], [94.0, 328.0, 113.0, 0.0, 0.0, 0.0], [98.0, 113.0, 374.0, 0.0, 0.0, 0.0], [0.0, 0.0, 0.0, 113.0, 0.0, 0.0], [0.0, 0.0, 0.0, 0.0, 124.0, 0.0], [0.0, 0.0, 0.0, 0.0, 0.0, 106.0]], 'homogeneous_poisson': 0.24, 'poisson_ratio': 0.24, 'universal_anisotropy': 0.03, 'elastic_tensor_original': [[373.81747407617615, 97.95626527917233, 112.08888117515693, -0.00019721495605867567, -0.04675751791542657, -7.213164788385193e-05], [98.27509115676655, 317.19097438087186, 92.3350063930472, -0.00038319123611126884, -0.0010767948551342293, -8.691288483294378e-05], [113.39426522325113, 95.00624832077732, 328.246575660933, -0.00039879306152905067, 0.1029559374601446, -3.719866289060538e-05], [0.17972324216844476, 0.1854966801014258, 0.17387439312663377, 106.19899637007114, -0.0008171622169883193, 0.030058885074558395], [0.0324540878320497, 0.05723355774428156, 0.061343691690254776, -0.0016201631226680593, 113.036982143228, 0.006290369673791035], [-0.0052122515413683896, -0.0071280931973663215, -0.008973994995582912, -0.011183793091921706, 1.4395196426730206e-05, 123.91784624966832]], 'compliance_tensor': [[3.6, -0.8, -0.7, 0.0, 0.0, 0.0], [-0.8, 3.6, -0.9, -0.0, -0.0, 0.0], [-0.7, -0.9, 3.1, -0.0, 0.0, -0.0], [0.0, -0.0, -0.0, 8.8, 0.0, 0.0], [0.0, -0.0, 0.0, 0.0, 8.1, -0.0], [0.0, 0.0, -0.0, 0.0, -0.0, 9.4]], 'warnings': [], 'nsites': 48}",0.0
415,mp-22179,YTiSi,"{'Y': 1.0, 'Ti': 1.0, 'Si': 1.0}",0.12858782690686527,4.422838633476582,"{'G_Reuss': 47.0, 'G_VRH': 49.0, 'G_Voigt': 51.0, 'G_Voigt_Reuss_Hill': 49.0, 'K_Reuss': 89.0, 'K_VRH': 89.0, 'K_Voigt': 90.0, 'K_Voigt_Reuss_Hill': 89.0, 'elastic_anisotropy': 0.42, 'elastic_tensor': [[138.0, 78.0, 56.0, 0.0, 0.0, 0.0], [78.0, 138.0, 56.0, 0.0, 0.0, 0.0], [56.0, 56.0, 148.0, 0.0, 0.0, 0.0], [0.0, 0.0, 0.0, 54.0, 0.0, 0.0], [0.0, 0.0, 0.0, 0.0, 54.0, 0.0], [0.0, 0.0, 0.0, 0.0, 0.0, 71.0]], 'homogeneous_poisson': 0.27, 'poisson_ratio': 0.27, 'universal_anisotropy': 0.42, 'elastic_tensor_original': [[137.83418560081927, 78.47229734509351, 56.76766402095872, 0.0, 0.0, 0.0], [78.41885863166374, 137.7883906653204, 56.65497912250023, 0.0, 0.0, 0.0], [55.70573491188902, 55.70573491188902, 148.20851093760385, 0.0, 0.0, 0.0], [-0.015326101106333867, -0.01607780733678945, -0.012263822883360939, 53.88019661690449, 0.0, 0.0], [0.0010443560606316817, 0.0027040284308648336, 0.004784757223427192, 0.0, 53.90568906211132, 0.0], [-0.09758411422313511, -0.07212006964761998, -0.14210961391910837, 0.0, 0.0, 70.60601628473641]], 'compliance_tensor': [[11.3, -5.5, -2.2, -0.0, 0.0, 0.0], [-5.5, 11.3, -2.2, 0.0, 0.0, 0.0], [-2.2, -2.2, 8.4, 0.0, 0.0, 0.0], [-0.0, 0.0, 0.0, 18.6, 0.0, 0.0], [0.0, 0.0, 0.0, 0.0, 18.6, 0.0], [0.0, 0.0, 0.0, 0.0, 0.0, 14.2]], 'warnings': [], 'nsites': 6}",0.0
416,mp-22274,HoTiSi,"{'Ho': 1.0, 'Ti': 1.0, 'Si': 1.0}",0.130785750759227,6.561676427329814,,0.0
417,mp-27827,Rb2TiCl6,"{'Rb': 2.0, 'Ti': 1.0, 'Cl': 6.0}",0.19639191093695943,2.663452049836092,"{'G_Reuss': 5.0, 'G_VRH': 5.0, 'G_Voigt': 5.0, 'G_Voigt_Reuss_Hill': 5.0, 'K_Reuss': 11.0, 'K_VRH': 11.0, 'K_Voigt': 11.0, 'K_Voigt_Reuss_Hill': 11.0, 'elastic_anisotropy': 0.21, 'elastic_tensor': [[17.0, 8.0, 8.0, 0.0, 0.0, 0.0], [8.0, 17.0, 8.0, 0.0, 0.0, 0.0], [8.0, 8.0, 17.0, 0.0, 0.0, 0.0], [0.0, 0.0, 0.0, 6.0, 0.0, 0.0], [0.0, 0.0, 0.0, 0.0, 6.0, 0.0], [0.0, 0.0, 0.0, 0.0, 0.0, 6.0]], 'homogeneous_poisson': 0.29, 'poisson_ratio': 0.29, 'universal_anisotropy': 0.21, 'elastic_tensor_original': [[16.651848196874806, 8.309983277318354, 8.309983277318354, 0.0, 0.0, 0.0], [8.308330676681699, 16.648654555011994, 8.308330676681699, 0.0, 0.0, 0.0], [8.30795594528528, 8.30795594528528, 16.647848676396727, 0.0, 0.0, 0.0], [-0.024074708790751045, -0.046313116402485754, -0.03366837828379973, 6.337824515932958, 0.0, 0.0], [0.046450493157356755, 0.02420254553949662, 0.0338755050834545, 0.0, 6.337716145863379, 0.0], [0.00018693678669151918, 0.0002435768230577923, 6.822671047233826e-05, 0.0, 0.0, 6.349730740244138]], 'compliance_tensor': [[89.9, -29.9, -29.9, 0.0, -0.0, 0.0], [-29.9, 89.9, -29.9, 0.0, -0.0, -0.0], [-29.9, -29.9, 89.9, -0.0, 0.0, 0.0], [0.0, 0.0, -0.0, 157.7, -0.0, -0.0], [-0.0, -0.0, 0.0, -0.0, 157.7, -0.0], [0.0, -0.0, 0.0, -0.0, -0.0, 157.7]], 'warnings': [], 'nsites': 9}",0.0
418,mp-28075,K2Ti2O5,"{'K': 2.0, 'Ti': 2.0, 'O': 5.0}",0.525257602376699,2.8954664171830298,,0.0
419,mp-28740,SrTi11O20,"{'Sr': 1.0, 'Ti': 11.0, 'O': 20.0}",0.5766975759580154,4.349283506673888,,0.0
420,mp-28917,Ba2Ti13O22,"{'Ba': 2.0, 'Ti': 13.0, 'O': 22.0}",0.5848939410414616,4.9370263686281355,,0.0