,mp_id,Formula,Composition,IPF,Density,Elastic_Tensor,E_above_Hull
582,mp-864919,MgTiRh2,"{'Mg': 1.0, 'Ti': 1.0, 'Rh': 2.0}",0.1462907557617573,7.747610900390847,"{'G_Reuss': 77.0, 'G_VRH': 77.0, 'G_Voigt': 77.0, 'G_Voigt_Reuss_Hill': 77.0, 'K_Reuss': 163.0, 'K_VRH': 163.0, 'K_Voigt': 163.0, 'K_Voigt_Reuss_Hill': 163.0, 'elastic_anisotropy': 0.01, 'elastic_tensor': [[272.0, 108.0, 108.0, 0.0, 0.0, 0.0], [108.0, 272.0, 108.0, 0.0, 0.0, 0.0], [108.0, 108.0, 272.0, 0.0, 0.0, 0.0], [0.0, 0.0, 0.0, 74.0, 0.0, 0.0], [0.0, 0.0, 0.0, 0.0, 74.0, 0.0], [0.0, 0.0, 0.0, 0.0, 0.0, 74.0]], 'homogeneous_poisson': 0.3, 'poisson_ratio': 0.3, 'universal_anisotropy': 0.01, 'elastic_tensor_original': [[271.44371229343835, 108.6749993842359, 108.6749993842359, 0.0, 0.0, 0.0], [108.30531272183333, 272.63572319895866, 108.30531272183333, 0.0, 0.0, 0.0], [108.37118550647975, 108.37118550647975, 272.3108031708092, 0.0, 0.0, 0.0], [0.0004492171579394155, 0.00023274358786766285, 0.00037919041468971855, 74.20359996704079, 0.0, 0.0], [-9.541010434034891e-05, -0.00016266684456120876, -0.00013425681349216493, 0.0, 74.20336804678716, 0.0], [-0.0003393437044454756, -0.00042950380304604836, -0.0005110038921768534, 0.0, 0.0, 74.20170280496602]], 'compliance_tensor': [[4.8, -1.4, -1.4, -0.0, -0.0, 0.0], [-1.4, 4.8, -1.4, 0.0, -0.0, -0.0], [-1.4, -1.4, 4.8, -0.0, 0.0, -0.0], [-0.0, 0.0, -0.0, 13.5, -0.0, -0.0], [-0.0, -0.0, 0.0, -0.0, 13.5, -0.0], [0.0, -0.0, -0.0, -0.0, -0.0, 13.5]], 'warnings': [], 'nsites': 4}",0.0
583,mp-865235,Ti6Al16Ni7,"{'Ti': 6.0, 'Al': 16.0, 'Ni': 7.0}",0.11683089848820409,4.564324365433942,"{'G_Reuss': 90.0, 'G_VRH': 91.0, 'G_Voigt': 91.0, 'G_Voigt_Reuss_Hill': 91.0, 'K_Reuss': 130.0, 'K_VRH': 130.0, 'K_Voigt': 130.0, 'K_Voigt_Reuss_Hill': 130.0, 'elastic_anisotropy': 0.09, 'elastic_tensor': [[232.0, 79.0, 79.0, 0.0, 0.0, 0.0], [79.0, 232.0, 79.0, 0.0, 0.0, 0.0], [79.0, 79.0, 232.0, 0.0, 0.0, 0.0], [0.0, 0.0, 0.0, 101.0, 0.0, 0.0], [0.0, 0.0, 0.0, 0.0, 101.0, 0.0], [0.0, 0.0, 0.0, 0.0, 0.0, 101.0]], 'homogeneous_poisson': 0.22, 'poisson_ratio': 0.22, 'universal_anisotropy': 0.09, 'elastic_tensor_original': [[231.84485631618318, 78.93353975994438, 78.90026175949924, -1.5921694648732083e-05, 2.571483009218989e-05, -7.15329981128721e-05], [79.71580695107502, 232.34169803469246, 79.7068155450906, -6.836316256935447e-05, -4.896855759320569e-06, 1.1465999906161394e-05], [77.27147352593744, 77.27161309413789, 231.33109284284052, 6.945230048087755e-05, -1.0809566782138845e-05, 0.00012002124965704247], [-0.004925829685839957, -0.4247425530689326, 0.41499018293234885, 101.27091454951727, -9.759645054354215e-07, 1.0209116624440274e-08], [0.13331187403713654, -0.006322901491804184, -0.14930412953147185, 9.798730698605518e-07, 101.27312779351979, -4.10100545311745e-06], [0.0011193735629637543, 0.0051290775936601125, 0.0013967890843893088, 2.7463299577309015e-08, -2.4661776642733073e-07, 101.27113359642647]], 'compliance_tensor': [[5.2, -1.3, -1.3, 0.0, -0.0, 0.0], [-1.3, 5.2, -1.3, -0.0, 0.0, 0.0], [-1.3, -1.3, 5.2, -0.0, -0.0, -0.0], [0.0, -0.0, -0.0, 9.9, 0.0, -0.0], [-0.0, 0.0, -0.0, 0.0, 9.9, -0.0], [0.0, 0.0, -0.0, -0.0, -0.0, 9.9]], 'warnings': [], 'nsites': 29}",0.0
584,mp-865441,TiAlPd2,"{'Ti': 1.0, 'Al': 1.0, 'Pd': 2.0}",0.14612368717152077,7.796983785633488,"{'G_Reuss': 20.0, 'G_VRH': 30.0, 'G_Voigt': 41.0, 'G_Voigt_Reuss_Hill': 30.0, 'K_Reuss': 166.0, 'K_VRH': 166.0, 'K_Voigt': 166.0, 'K_Voigt_Reuss_Hill': 166.0, 'elastic_anisotropy': 5.11, 'elastic_tensor': [[179.0, 159.0, 159.0, 0.0, 0.0, 0.0], [159.0, 179.0, 159.0, 0.0, 0.0, 0.0], [159.0, 159.0, 179.0, 0.0, 0.0, 0.0], [0.0, 0.0, 0.0, 61.0, 0.0, 0.0], [0.0, 0.0, 0.0, 0.0, 61.0, 0.0], [0.0, 0.0, 0.0, 0.0, 0.0, 61.0]], 'homogeneous_poisson': 0.41, 'poisson_ratio': 0.41, 'universal_anisotropy': 5.11, 'elastic_tensor_original': [[178.1069429376877, 160.6215628624288, 160.6215628624288, 0.0, 0.0, 0.0], [161.61493214187607, 181.2834572836989, 161.61493214187607, 0.0, 0.0, 0.0], [155.34892186378542, 155.34892186378542, 178.38302965534993, 0.0, 0.0, 0.0], [0.00023463970669097562, 0.00012608650905349486, 0.0001858631009982492, 61.15029267000392, 0.0, 0.0], [0.028835817287557033, 0.027932555083333976, 0.028380794523018234, 0.0, 61.14839740237307, 0.0], [0.00043119279432712556, 0.0003065496168026848, 0.0004368461205918155, 0.0, 0.0, 61.15048723309403]], 'compliance_tensor': [[33.9, -15.9, -15.9, -0.0, 0.0, 0.0], [-15.9, 33.9, -15.9, 0.0, 0.0, 0.0], [-15.9, -15.9, 33.9, -0.0, 0.0, 0.0], [-0.0, 0.0, -0.0, 16.4, 0.0, 0.0], [0.0, 0.0, 0.0, 0.0, 16.4, 0.0], [0.0, 0.0, 0.0, 0.0, 0.0, 16.4]], 'warnings': [], 'nsites': 4}",0.0
585,mp-865469,Ti2MnRu,"{'Ti': 2.0, 'Mn': 1.0, 'Ru': 1.0}",0.1342868168509619,7.4584229699071365,"{'G_Reuss': 76.0, 'G_VRH': 80.0, 'G_Voigt': 83.0, 'G_Voigt_Reuss_Hill': 80.0, 'K_Reuss': 188.0, 'K_VRH': 188.0, 'K_Voigt': 188.0, 'K_Voigt_Reuss_Hill': 188.0, 'elastic_anisotropy': 0.45, 'elastic_tensor': [[341.0, 112.0, 112.0, 0.0, 0.0, 0.0], [112.0, 341.0, 112.0, 0.0, 0.0, 0.0], [112.0, 112.0, 341.0, 0.0, 0.0, 0.0], [0.0, 0.0, 0.0, 62.0, 0.0, 0.0], [0.0, 0.0, 0.0, 0.0, 62.0, 0.0], [0.0, 0.0, 0.0, 0.0, 0.0, 62.0]], 'homogeneous_poisson': 0.31, 'poisson_ratio': 0.31, 'universal_anisotropy': 0.45, 'elastic_tensor_original': [[340.7683372833118, 112.22940119988665, 112.22940119988665, 0.0, 0.0, 0.0], [111.04215454773635, 340.87071543406404, 111.03998552816118, -0.0001673751216782051, -4.7136908369125555e-05, -1.7804157648568056e-05], [111.92163946358188, 111.92163946358188, 340.3880417647345, 0.0, 0.0, 0.0], [-0.0008984267395915466, -0.0009928367472541793, -0.000981246746313909, 62.49654949618829, 0.0, 0.0], [-0.0011563600938615751, -0.0009878367468484372, -0.0011209767576549603, 0.0, 62.496501939517756, 0.0], [0.00034524336135703405, 0.00034154669439173647, 0.00029651669073526497, 0.0, 0.0, 62.496435106179]], 'compliance_tensor': [[3.5, -0.9, -0.9, -0.0, 0.0, -0.0], [-0.9, 3.5, -0.9, -0.0, -0.0, 0.0], [-0.9, -0.9, 3.5, 0.0, -0.0, -0.0], [-0.0, -0.0, 0.0, 16.0, -0.0, -0.0], [0.0, -0.0, -0.0, -0.0, 16.0, -0.0], [-0.0, 0.0, -0.0, -0.0, -0.0, 16.0]], 'warnings': [], 'nsites': 4}",0.0
586,mp-865537,TiMnCo2,"{'Ti': 1.0, 'Mn': 1.0, 'Co': 2.0}",0.15102094074586983,7.350147535407575,"{'G_Reuss': 74.0, 'G_VRH': 78.0, 'G_Voigt': 82.0, 'G_Voigt_Reuss_Hill': 78.0, 'K_Reuss': 173.0, 'K_VRH': 173.0, 'K_Voigt': 173.0, 'K_Voigt_Reuss_Hill': 173.0, 'elastic_anisotropy': 0.56, 'elastic_tensor': [[242.0, 138.0, 138.0, 0.0, 0.0, 0.0], [138.0, 242.0, 138.0, 0.0, 0.0, 0.0], [138.0, 138.0, 242.0, 0.0, 0.0, 0.0], [0.0, 0.0, 0.0, 102.0, 0.0, 0.0], [0.0, 0.0, 0.0, 0.0, 102.0, 0.0], [0.0, 0.0, 0.0, 0.0, 0.0, 102.0]], 'homogeneous_poisson': 0.3, 'poisson_ratio': 0.3, 'universal_anisotropy': 0.56, 'elastic_tensor_original': [[243.2660049500659, 139.17253383625118, 139.17251897876048, 0.0005003633139544239, 0.0011911585203291852, -0.0016000014701456212], [137.7603200192874, 241.85393791559855, 137.75657401731772, -0.0004882802546642989, -5.661312368309346e-05, 0.0036990581752939437], [138.14372766808702, 138.14214469165418, 242.24347299651916, -0.000196418506026943, 0.0005036939957167411, -0.0012082673323770038], [-0.31021548839605745, -0.308764744190093, -0.3087327249247542, 101.51290194507337, -1.6653264528845888e-05, 0.00022031001963827954], [-0.04396847652854711, -0.043723032834919746, -0.04403722174313198, -0.0002772534592726895, 101.51066198161732, -0.00013314349982612554], [-0.353362509836145, -0.35310156611818416, -0.352551742277523, -0.00011670970164678826, -6.001312660862088e-05, 101.51728448894285]], 'compliance_tensor': [[7.0, -2.6, -2.6, -0.0, 0.0, 0.0], [-2.6, 7.0, -2.6, 0.0, -0.0, 0.0], [-2.6, -2.6, 7.0, 0.0, 0.0, -0.0], [-0.0, 0.0, 0.0, 9.9, 0.0, 0.0], [0.0, -0.0, 0.0, 0.0, 9.9, 0.0], [0.0, 0.0, -0.0, 0.0, 0.0, 9.9]], 'warnings': [], 'nsites': 4}",0.0
587,mp-865548,TiInCo2,"{'Ti': 1.0, 'In': 1.0, 'Co': 2.0}",0.18200852864378247,8.59380542640719,"{'G_Reuss': 67.0, 'G_VRH': 68.0, 'G_Voigt': 70.0, 'G_Voigt_Reuss_Hill': 68.0, 'K_Reuss': 159.0, 'K_VRH': 159.0, 'K_Voigt': 159.0, 'K_Voigt_Reuss_Hill': 159.0, 'elastic_anisotropy': 0.21, 'elastic_tensor': [[230.0, 124.0, 124.0, 0.0, 0.0, 0.0], [124.0, 230.0, 124.0, 0.0, 0.0, 0.0], [124.0, 124.0, 230.0, 0.0, 0.0, 0.0], [0.0, 0.0, 0.0, 81.0, 0.0, 0.0], [0.0, 0.0, 0.0, 0.0, 81.0, 0.0], [0.0, 0.0, 0.0, 0.0, 0.0, 81.0]], 'homogeneous_poisson': 0.31, 'poisson_ratio': 0.31, 'universal_anisotropy': 0.21, 'elastic_tensor_original': [[228.7935711361286, 125.25470705408357, 125.25470705408357, 0.0, 0.0, 0.0], [122.93586159985755, 231.5061819901756, 122.93639027035815, -0.00015014242217634559, -9.58389843389801e-05, -4.875738503839871e-05], [122.90355981974132, 122.90082326163144, 228.8444753180334, 0.00020456555899498377, 0.00014052660401410824, 0.0006882691423178213], [-3.1433366904852067e-06, -7.526674709860269e-06, -6.393340166306487e-06, 80.61145881441534, 0.0, 0.0], [2.2766690999365815e-05, 2.458335960864126e-05, 2.3310024912821865e-05, 0.0, 80.61144771107013, 0.0], [-1.807001931160196e-05, -1.6493350960829872e-05, -1.0366677743820221e-05, 0.0, 0.0, 80.61155482785126]], 'compliance_tensor': [[7.0, -2.4, -2.4, -0.0, 0.0, 0.0], [-2.4, 7.0, -2.4, 0.0, -0.0, 0.0], [-2.4, -2.4, 7.0, 0.0, 0.0, -0.0], [-0.0, 0.0, 0.0, 12.4, -0.0, -0.0], [0.0, -0.0, 0.0, -0.0, 12.4, -0.0], [0.0, 0.0, -0.0, -0.0, -0.0, 12.4]], 'warnings': [], 'nsites': 4}",0.0
588,mp-865591,Ti2NiMo,"{'Ti': 2.0, 'Ni': 1.0, 'Mo': 1.0}",0.15092416784412746,7.112101516720644,"{'G_Reuss': 78.0, 'G_VRH': 79.0, 'G_Voigt': 79.0, 'G_Voigt_Reuss_Hill': 79.0, 'K_Reuss': 171.0, 'K_VRH': 171.0, 'K_Voigt': 171.0, 'K_Voigt_Reuss_Hill': 171.0, 'elastic_anisotropy': 0.06, 'elastic_tensor': [[291.0, 110.0, 110.0, 0.0, 0.0, 0.0], [110.0, 291.0, 110.0, 0.0, 0.0, 0.0], [110.0, 110.0, 291.0, 0.0, 0.0, 0.0], [0.0, 0.0, 0.0, 72.0, 0.0, 0.0], [0.0, 0.0, 0.0, 0.0, 72.0, 0.0], [0.0, 0.0, 0.0, 0.0, 0.0, 72.0]], 'homogeneous_poisson': 0.3, 'poisson_ratio': 0.3, 'universal_anisotropy': 0.06, 'elastic_tensor_original': [[292.45205972715587, 110.6749565589935, 110.67495220822082, -2.7969252681185555e-05, -3.4625734322872726e-05, 1.2691424334903555e-05], [110.14348622873065, 290.7652546516601, 110.14286729623585, 2.3157338241411698e-05, 1.806472879265103e-05, -3.7352485838744585e-05], [109.95708930189541, 109.9576750722799, 290.57919362199965, 1.2290431464922397e-05, -1.7443189844180238e-05, 9.499521089853562e-05], [-2.8009970688943317e-05, -3.0379968209708132e-05, -3.067663456625406e-05, 71.8252673981043, 0.0, 0.0], [-8.066658224926286e-06, -1.1526654603965833e-05, -6.7466596068299385e-06, 0.0, 71.82528708141706, 0.0], [6.890992789344791e-05, 6.641659716782518e-05, 7.744325229815066e-05, 0.0, 0.0, 71.82526139477727]], 'compliance_tensor': [[4.3, -1.2, -1.2, 0.0, 0.0, 0.0], [-1.2, 4.3, -1.2, 0.0, 0.0, 0.0], [-1.2, -1.2, 4.3, 0.0, 0.0, 0.0], [0.0, 0.0, 0.0, 13.9, 0.0, 0.0], [0.0, 0.0, 0.0, 0.0, 13.9, 0.0], [0.0, 0.0, 0.0, 0.0, 0.0, 13.9]], 'warnings': [], 'nsites': 4}",0.0
589,mp-865652,TiMn2Si,"{'Ti': 1.0, 'Mn': 2.0, 'Si': 1.0}",0.11384480827894115,6.352313230944243,"{'G_Reuss': 102.0, 'G_VRH': 105.0, 'G_Voigt': 108.0, 'G_Voigt_Reuss_Hill': 105.0, 'K_Reuss': 207.0, 'K_VRH': 207.0, 'K_Voigt': 207.0, 'K_Voigt_Reuss_Hill': 207.0, 'elastic_anisotropy': 0.26, 'elastic_tensor': [[313.0, 153.0, 153.0, 0.0, 0.0, 0.0], [153.0, 313.0, 153.0, 0.0, 0.0, 0.0], [153.0, 153.0, 313.0, 0.0, 0.0, 0.0], [0.0, 0.0, 0.0, 126.0, 0.0, 0.0], [0.0, 0.0, 0.0, 0.0, 126.0, 0.0], [0.0, 0.0, 0.0, 0.0, 0.0, 126.0]], 'homogeneous_poisson': 0.28, 'poisson_ratio': 0.28, 'universal_anisotropy': 0.26, 'elastic_tensor_original': [[312.9406800957294, 153.81858129165502, 153.81858129165502, 0.0, 0.0, 0.0], [153.78623933619218, 312.9055725925804, 153.78623933619218, 0.0, 0.0, 0.0], [152.58857240618644, 152.58857240618644, 312.83936316826396, 0.0, 0.0, 0.0], [0.002844200095897796, 0.0030953470653716027, 0.003426654131491915, 126.45572939342226, 0.0, 0.0], [-0.01942281008460729, -0.02391660216940693, -0.016051976020417736, 0.0, 126.4782072471903, 0.0], [-0.019517366865279235, -0.016176952837768054, -0.02402958897230026, 0.0, 0.0, 126.47815743046357]], 'compliance_tensor': [[4.7, -1.6, -1.6, 0.0, -0.0, -0.0], [-1.6, 4.7, -1.6, -0.0, 0.0, -0.0], [-1.6, -1.6, 4.7, -0.0, -0.0, 0.0], [0.0, -0.0, -0.0, 7.9, 0.0, 0.0], [-0.0, 0.0, -0.0, 0.0, 7.9, 0.0], [-0.0, -0.0, 0.0, 0.0, 0.0, 7.9]], 'warnings': [], 'nsites': 4}",0.0
590,mp-865655,TiNbTc2,"{'Ti': 1.0, 'Nb': 1.0, 'Tc': 2.0}",0.1324608036324706,8.908701471523768,"{'G_Reuss': 93.0, 'G_VRH': 96.0, 'G_Voigt': 98.0, 'G_Voigt_Reuss_Hill': 96.0, 'K_Reuss': 222.0, 'K_VRH': 222.0, 'K_Voigt': 222.0, 'K_Voigt_Reuss_Hill': 222.0, 'elastic_anisotropy': 0.28, 'elastic_tensor': [[392.0, 137.0, 137.0, 0.0, 0.0, 0.0], [137.0, 392.0, 137.0, 0.0, 0.0, 0.0], [137.0, 137.0, 392.0, 0.0, 0.0, 0.0], [0.0, 0.0, 0.0, 79.0, 0.0, 0.0], [0.0, 0.0, 0.0, 0.0, 79.0, 0.0], [0.0, 0.0, 0.0, 0.0, 0.0, 79.0]], 'homogeneous_poisson': 0.31, 'poisson_ratio': 0.31, 'universal_anisotropy': 0.28, 'elastic_tensor_original': [[391.85519839578336, 137.6650260544111, 137.66504871033757, -8.723534167456005e-05, -0.00014706302716223805, -0.00010991131764190716], [135.41658280719906, 391.0062109771338, 135.41658280719906, 0.0, 0.0, 0.0], [137.6250619310772, 137.6245728838572, 391.8091819516718, -1.6240088889081504e-05, 0.00010650290392444562, 2.3277460741016826e-05], [-0.00022140013143830847, -0.0002409567330780046, -0.0003223701402190593, 79.05245412127898, 0.0, 0.0], [0.0003992869583935728, 0.0004005736175620124, 0.0003701669167174476, 0.0, 79.0524844945496, 0.0], [-8.480095157339899e-06, -5.2501132471461846e-06, 1.8543268102368595e-05, 0.0, 0.0, 79.05242583450291]], 'compliance_tensor': [[3.1, -0.8, -0.8, 0.0, -0.0, 0.0], [-0.8, 3.1, -0.8, -0.0, 0.0, -0.0], [-0.8, -0.8, 3.1, -0.0, 0.0, 0.0], [0.0, -0.0, -0.0, 12.6, -0.0, 0.0], [-0.0, 0.0, 0.0, -0.0, 12.6, -0.0], [0.0, -0.0, 0.0, 0.0, -0.0, 12.6]], 'warnings': [], 'nsites': 4}",0.0
591,mp-865664,TiRe2W,"{'Ti': 1.0, 'Re': 2.0, 'W': 1.0}",0.12165122589678566,16.2597984805017,"{'G_Reuss': 145.0, 'G_VRH': 146.0, 'G_Voigt': 147.0, 'G_Voigt_Reuss_Hill': 146.0, 'K_Reuss': 285.0, 'K_VRH': 285.0, 'K_Voigt': 285.0, 'K_Voigt_Reuss_Hill': 285.0, 'elastic_anisotropy': 0.05, 'elastic_tensor': [[506.0, 175.0, 175.0, 0.0, 0.0, 0.0], [175.0, 506.0, 175.0, 0.0, 0.0, 0.0], [175.0, 175.0, 506.0, 0.0, 0.0, 0.0], [0.0, 0.0, 0.0, 134.0, 0.0, 0.0], [0.0, 0.0, 0.0, 0.0, 134.0, 0.0], [0.0, 0.0, 0.0, 0.0, 0.0, 134.0]], 'homogeneous_poisson': 0.28, 'poisson_ratio': 0.28, 'universal_anisotropy': 0.05, 'elastic_tensor_original': [[503.9320925242339, 175.11675092135994, 175.11675092135994, 0.0, 0.0, 0.0], [174.237743774769, 507.1083144911906, 174.237743774769, 0.0, 0.0, 0.0], [174.22757681816887, 174.22757681816887, 507.0989136675181, 0.0, 0.0, 0.0], [0.00013904288707552092, -9.893344372031963e-05, -4.4930281671463e-05, 134.3266000198896, 0.0, 0.0], [-0.00028916944058592, -0.00019925975081964425, -0.0008754128757772147, 0.0, 134.32551221957507, 0.0], [-0.0003733401157645437, -0.00017137996062680427, -0.0002660330397426119, 0.0, 0.0, 134.32658767991802]], 'compliance_tensor': [[2.4, -0.6, -0.6, 0.0, -0.0, -0.0], [-0.6, 2.4, -0.6, -0.0, 0.0, -0.0], [-0.6, -0.6, 2.4, -0.0, -0.0, 0.0], [0.0, -0.0, -0.0, 7.4, 0.0, 0.0], [-0.0, 0.0, -0.0, 0.0, 7.4, 0.0], [-0.0, -0.0, 0.0, 0.0, 0.0, 7.4]], 'warnings': [], 'nsites': 4}",0.0
592,mp-865665,TiReTc2,"{'Ti': 1.0, 'Re': 1.0, 'Tc': 2.0}",0.12602776290683979,11.967737648863498,"{'G_Reuss': 123.0, 'G_VRH': 123.0, 'G_Voigt': 123.0, 'G_Voigt_Reuss_Hill': 123.0, 'K_Reuss': 273.0, 'K_VRH': 273.0, 'K_Voigt': 273.0, 'K_Voigt_Reuss_Hill': 273.0, 'elastic_anisotropy': 0.01, 'elastic_tensor': [[445.0, 187.0, 187.0, 0.0, 0.0, 0.0], [187.0, 445.0, 187.0, 0.0, 0.0, 0.0], [187.0, 187.0, 445.0, 0.0, 0.0, 0.0], [0.0, 0.0, 0.0, 119.0, 0.0, 0.0], [0.0, 0.0, 0.0, 0.0, 119.0, 0.0], [0.0, 0.0, 0.0, 0.0, 0.0, 119.0]], 'homogeneous_poisson': 0.3, 'poisson_ratio': 0.3, 'universal_anisotropy': 0.01, 'elastic_tensor_original': [[445.33439827871035, 187.36146317081116, 187.36146317081116, 0.0, 0.0, 0.0], [187.36865488643238, 445.3426981819652, 187.36865488643238, 0.0, 0.0, 0.0], [187.3738431740324, 187.3738431740324, 445.3444660280354, 0.0, 0.0, 0.0], [-0.001194327587509914, -0.00014321099686297496, -0.0003095940875980461, 118.83527936366394, 0.0, 0.0], [0.0016624849069782357, 0.0011281131400221833, 0.0010517488751499954, 0.0, 118.83531909019581, 0.0], [0.00014873085840907445, 0.0014402521824469754, 0.00037769417973990794, 0.0, 0.0, 118.8338513942925]], 'compliance_tensor': [[3.0, -0.9, -0.9, 0.0, 0.0, -0.0], [-0.9, 3.0, -0.9, -0.0, 0.0, 0.0], [-0.9, -0.9, 3.0, 0.0, -0.0, 0.0], [0.0, -0.0, 0.0, 8.4, -0.0, 0.0], [0.0, 0.0, -0.0, -0.0, 8.4, -0.0], [-0.0, 0.0, 0.0, 0.0, -0.0, 8.4]], 'warnings': [], 'nsites': 4}",0.0
593,mp-865679,TiSnPd2,"{'Ti': 1.0, 'Sn': 1.0, 'Pd': 2.0}",0.14829531096330847,9.287622660242107,"{'G_Reuss': -68.0, 'G_VRH': -18.0, 'G_Voigt': 33.0, 'G_Voigt_Reuss_Hill': -18.0, 'K_Reuss': 146.0, 'K_VRH': 146.0, 'K_Voigt': 146.0, 'K_Voigt_Reuss_Hill': 146.0, 'elastic_anisotropy': -7.39, 'elastic_tensor': [[124.0, 158.0, 158.0, 0.0, 0.0, 0.0], [158.0, 124.0, 158.0, 0.0, 0.0, 0.0], [158.0, 158.0, 124.0, 0.0, 0.0, 0.0], [0.0, 0.0, 0.0, 66.0, 0.0, 0.0], [0.0, 0.0, 0.0, 0.0, 66.0, 0.0], [0.0, 0.0, 0.0, 0.0, 0.0, 66.0]], 'homogeneous_poisson': 0.56, 'poisson_ratio': 0.56, 'universal_anisotropy': -7.39, 'elastic_tensor_original': [[123.81835739060801, 157.5168283436976, 157.5168283436976, 0.0, 0.0, 0.0], [157.51279942683024, 123.81440172068046, 157.51279942683024, 0.0, 0.0, 0.0], [157.51314327197656, 157.51314327197656, 123.8149883646975, 0.0, 0.0, 0.0], [4.4833325856270504e-05, 4.5703325711045624e-05, 3.748999374671097e-05, 65.77380892787632, 0.0, 0.0], [2.7883328684199074e-05, 1.6559997238080215e-05, 3.36066610610398e-05, 0.0, 65.77385754120152, 0.0], [9.073331822527715e-06, -8.846665190619271e-06, 1.5333330775935183e-05, 0.0, 0.0, 65.77377823788143]], 'compliance_tensor': [[-19.0, 10.7, 10.7, 0.0, 0.0, -0.0], [10.7, -19.0, 10.7, -0.0, 0.0, 0.0], [10.7, 10.7, -19.0, 0.0, -0.0, 0.0], [0.0, -0.0, 0.0, 15.2, 0.0, 0.0], [0.0, 0.0, -0.0, 0.0, 15.2, 0.0], [-0.0, 0.0, 0.0, 0.0, 0.0, 15.2]], 'warnings': ['Elastic tensor has a negative eigenvalue', 'c11 and c12 are within 5% or c12 is greater than c11', 'c11 and c13 are within 5% or c13 is greater than c11', 'c11 and c23 are within 5% or c23 is greater than c11', 'One or more K, G below 2 GPa'], 'nsites': 4}",0.0
594,mp-865680,TiSiOs2,"{'Ti': 1.0, 'Si': 1.0, 'Os': 2.0}",0.10506926250424861,13.727474303048396,"{'G_Reuss': 135.0, 'G_VRH': 136.0, 'G_Voigt': 138.0, 'G_Voigt_Reuss_Hill': 136.0, 'K_Reuss': 279.0, 'K_VRH': 279.0, 'K_Voigt': 279.0, 'K_Voigt_Reuss_Hill': 279.0, 'elastic_anisotropy': 0.11, 'elastic_tensor': [[496.0, 170.0, 170.0, 0.0, 0.0, 0.0], [170.0, 496.0, 170.0, 0.0, 0.0, 0.0], [170.0, 170.0, 496.0, 0.0, 0.0, 0.0], [0.0, 0.0, 0.0, 121.0, 0.0, 0.0], [0.0, 0.0, 0.0, 0.0, 121.0, 0.0], [0.0, 0.0, 0.0, 0.0, 0.0, 121.0]], 'homogeneous_poisson': 0.29, 'poisson_ratio': 0.29, 'universal_anisotropy': 0.11, 'elastic_tensor_original': [[496.1071943223903, 170.3954881924013, 170.3954881924013, 0.0, 0.0, 0.0], [170.39830015642693, 496.1094355432166, 170.39830015642693, 0.0, 0.0, 0.0], [170.39643779808145, 170.39643779808145, 496.10678186329636, 0.0, 0.0, 0.0], [-0.0005690235950151793, 5.381335808229653e-05, -0.000319040146719809, 120.8369009976234, 0.0, 0.0], [5.36966913636664e-05, -0.0002320167733653573, 2.299667724313871e-05, 0.0, 120.83697435765716, 0.0], [0.0001833000842970605, -0.0003839535099066374, -0.00029694680322652644, 0.0, 0.0, 120.83727299112776]], 'compliance_tensor': [[2.4, -0.6, -0.6, -0.0, -0.0, 0.0], [-0.6, 2.4, -0.6, 0.0, 0.0, -0.0], [-0.6, -0.6, 2.4, 0.0, 0.0, 0.0], [-0.0, 0.0, 0.0, 8.3, 0.0, -0.0], [-0.0, 0.0, 0.0, 0.0, 8.3, 0.0], [0.0, -0.0, 0.0, -0.0, 0.0, 8.3]], 'warnings': [], 'nsites': 4}",0.0