,mp_id,Formula,Composition,IPF,Density,Elastic_Tensor,E_above_Hull
650,mp-16318,RbTiS2,"{'Rb': 1.0, 'Ti': 1.0, 'S': 2.0}",0.30535558495164666,3.6465683952596106,"{'G_Reuss': 30.0, 'G_VRH': 31.0, 'G_Voigt': 31.0, 'G_Voigt_Reuss_Hill': 31.0, 'K_Reuss': 52.0, 'K_VRH': 52.0, 'K_Voigt': 52.0, 'K_Voigt_Reuss_Hill': 52.0, 'elastic_anisotropy': 0.12, 'elastic_tensor': [[92.0, 31.0, 28.0, -1.0, 0.0, 0.0], [31.0, 92.0, 28.0, 1.0, 0.0, 0.0], [28.0, 28.0, 115.0, 0.0, 0.0, 0.0], [-1.0, 1.0, 0.0, 27.0, 0.0, 0.0], [0.0, 0.0, 0.0, 0.0, 27.0, -1.0], [0.0, 0.0, 0.0, 0.0, -1.0, 30.0]], 'homogeneous_poisson': 0.25, 'poisson_ratio': 0.25, 'universal_anisotropy': 0.12, 'elastic_tensor_original': [[91.99770676875116, 30.179608579104933, 27.936764584984623, 1.5623783687872117, 0.0, 0.0], [30.595335839023196, 91.59371592008891, 27.828010576538617, -1.4516026317175272, 0.0, 0.0], [28.383818467301644, 28.38380742801189, 115.16341052527953, 0.0, 0.0, 0.0], [0.8287875808966051, -0.6798284261607355, 0.030322307961183126, 26.945047318871843, 0.0, 0.0], [0.00539159426912274, 0.010696393158813064, 0.020048065970534632, 0.0022808334128118055, 27.217682209383728, 0.8070846799364393], [-0.0034996607731345784, -0.004576913548029209, -0.005724126531051213, 0.0011049480741915723, 0.9327606874952207, 30.20080417994455]], 'compliance_tensor': [[12.8, -3.6, -2.3, 0.6, -0.0, -0.0], [-3.6, 12.8, -2.3, -0.6, -0.0, -0.0], [-2.3, -2.3, 9.8, 0.0, -0.0, 0.0], [0.6, -0.6, 0.0, 37.0, -0.0, -0.0], [-0.0, -0.0, -0.0, -0.0, 37.0, 1.2], [-0.0, -0.0, 0.0, -0.0, 1.2, 32.9]], 'warnings': [], 'nsites': 4}",0.0
651,mp-17908,Ba2TiS4,"{'Ba': 2.0, 'Ti': 1.0, 'S': 4.0}",0.2091430037466569,3.7525851466947393,,0.0
652,mp-17986,TiTl2O3,"{'Ti': 1.0, 'Tl': 2.0, 'O': 3.0}",0.3884336347138273,6.8458618618549485,,0.0
653,mp-18051,La2TiO5,"{'La': 2.0, 'Ti': 1.0, 'O': 5.0}",0.4613488660525297,5.36109895393014,,0.0
654,mp-18732,TiNiO3,"{'Ti': 1.0, 'Ni': 1.0, 'O': 3.0}",0.5672477875205336,4.948071791584746,"{'G_Reuss': 81.0, 'G_VRH': 82.0, 'G_Voigt': 83.0, 'G_Voigt_Reuss_Hill': 82.0, 'K_Reuss': 175.0, 'K_VRH': 177.0, 'K_Voigt': 180.0, 'K_Voigt_Reuss_Hill': 177.0, 'elastic_anisotropy': 0.13, 'elastic_tensor': [[317.0, 152.0, 105.0, 8.0, 6.0, 0.0], [152.0, 317.0, 105.0, -8.0, -6.0, 0.0], [105.0, 105.0, 259.0, 0.0, 0.0, 0.0], [8.0, -8.0, 0.0, 78.0, 0.0, -6.0], [6.0, -6.0, 0.0, 0.0, 78.0, 8.0], [0.0, 0.0, 0.0, -6.0, 8.0, 83.0]], 'homogeneous_poisson': 0.3, 'poisson_ratio': 0.3, 'universal_anisotropy': 0.13, 'elastic_tensor_original': [[318.1114372511955, 150.904570599687, 104.7094787371596, -8.345695240235333, -5.585603384283971, -0.01748203032164929], [151.03910640121444, 317.31842965139566, 104.4992579712093, 7.823925332738979, 5.896576323817226, -0.04035096026727431], [105.48754426774275, 105.48753686850024, 259.12113866237695, 0.0, 0.0, 3.3964639352304506e-07], [-7.57593755302713, 7.31606916734351, 0.2106789727095991, 77.8449869018019, -0.048424778554688755, 5.693328246596395], [-6.081975106649394, 5.595072292780838, 0.5155542946630622, -0.03602994894243194, 77.80408161247225, -7.4200549174291615], [0.22919732528940112, 0.16312289276518308, 0.22778208924735796, 5.673319392624876, -7.270842176231259, 82.20640498997743]], 'compliance_tensor': [[4.4, -1.8, -1.1, -0.6, -0.5, 0.0], [-1.8, 4.4, -1.1, 0.6, 0.5, 0.0], [-1.1, -1.1, 4.7, -0.0, -0.0, -0.0], [-0.6, 0.6, -0.0, 13.0, 0.0, 0.9], [-0.5, 0.5, -0.0, 0.0, 13.0, -1.2], [0.0, 0.0, -0.0, 0.9, -1.2, 12.3]], 'warnings': [], 'nsites': 20}",0.0
655,mp-20478,LuTiSi,"{'Lu': 1.0, 'Ti': 1.0, 'Si': 1.0}",0.12677355309152816,7.091532880247245,,0.0
656,mp-22769,TiCoGe,"{'Ti': 1.0, 'Co': 1.0, 'Ge': 1.0}",0.15444784960808247,7.1908569707582775,"{'G_Reuss': 76.0, 'G_VRH': 78.0, 'G_Voigt': 80.0, 'G_Voigt_Reuss_Hill': 78.0, 'K_Reuss': 171.0, 'K_VRH': 171.0, 'K_Voigt': 172.0, 'K_Voigt_Reuss_Hill': 171.0, 'elastic_anisotropy': 0.21, 'elastic_tensor': [[263.0, 106.0, 138.0, 0.0, 0.0, 0.0], [106.0, 263.0, 138.0, 0.0, 0.0, 0.0], [138.0, 138.0, 253.0, 0.0, 0.0, 0.0], [0.0, 0.0, 0.0, 94.0, 0.0, 0.0], [0.0, 0.0, 0.0, 0.0, 94.0, 0.0], [0.0, 0.0, 0.0, 0.0, 0.0, 79.0]], 'homogeneous_poisson': 0.3, 'poisson_ratio': 0.3, 'universal_anisotropy': 0.21, 'elastic_tensor_original': [[265.3710114912707, 104.10152823615249, 139.2530175453162, 0.0, 0.0, 0.0], [104.23999276115616, 265.28307209615843, 138.8749857391379, 0.0, 0.0, 0.0], [136.99760363264033, 136.99761375147102, 252.68626720928393, 0.0, 0.0, 0.0], [-2.7773311827115202e-05, -1.580994153622602e-05, -2.7803288497603446e-05, 93.61129666100099, 0.0, 0.0], [0.5645853772716392, 0.5488900296723809, 0.6917286893437826, 0.0, 93.9177919016704, 0.0], [-5.276673166191147e-06, -6.034659508591634e-05, -2.61466324448868e-05, 0.0, 0.0, 76.60843482693521]], 'compliance_tensor': [[5.5, -0.9, -2.5, -0.0, 0.0, 0.0], [-0.9, 5.5, -2.5, 0.0, 0.0, 0.0], [-2.5, -2.5, 6.7, 0.0, -0.0, -0.0], [-0.0, 0.0, 0.0, 10.7, 0.0, 0.0], [0.0, 0.0, -0.0, 0.0, 10.7, -0.0], [0.0, 0.0, -0.0, 0.0, -0.0, 12.7]], 'warnings': [], 'nsites': 9}",0.0
657,mp-22962,CsTiBr3,"{'Cs': 1.0, 'Ti': 1.0, 'Br': 3.0}",0.2125115672354883,4.114540726103568,"{'G_Reuss': 7.0, 'G_VRH': 7.0, 'G_Voigt': 7.0, 'G_Voigt_Reuss_Hill': 7.0, 'K_Reuss': 15.0, 'K_VRH': 15.0, 'K_Voigt': 16.0, 'K_Voigt_Reuss_Hill': 15.0, 'elastic_anisotropy': 0.23, 'elastic_tensor': [[22.0, 9.0, 11.0, 0.0, 0.0, 0.0], [9.0, 22.0, 11.0, 0.0, 0.0, 0.0], [11.0, 11.0, 36.0, 0.0, 0.0, 0.0], [0.0, 0.0, 0.0, 7.0, 0.0, 0.0], [0.0, 0.0, 0.0, 0.0, 7.0, 0.0], [0.0, 0.0, 0.0, 0.0, 0.0, 7.0]], 'homogeneous_poisson': 0.3, 'poisson_ratio': 0.3, 'universal_anisotropy': 0.23, 'elastic_tensor_original': [[23.68737132864588, 7.863704174171961, 10.78360768217459, 0.0, 0.0, 0.0], [8.681823392291747, 22.261696596320082, 10.487477885173702, 0.0, 0.0, 0.0], [10.813186951031502, 10.81318789177445, 35.680869352613996, 0.0, 0.0, 0.0], [0.004725158509263989, -0.038769112467619986, -0.03965986677668417, 6.857603135140187, 0.0, 0.0], [-0.03396143570332014, -0.01613725370345036, -0.058327731096497075, 0.0, 6.398220021954458, 0.0], [0.16063286481105046, -0.18809435551676779, 0.041786120497143114, 0.0, 0.0, 5.955085973643217]], 'compliance_tensor': [[57.7, -17.4, -12.1, -0.0, 0.0, -0.0], [-17.4, 57.7, -12.1, -0.0, 0.0, -0.0], [-12.1, -12.1, 35.3, 0.0, -0.0, 0.0], [-0.0, -0.0, 0.0, 150.9, -0.0, 0.0], [0.0, 0.0, -0.0, -0.0, 150.9, -0.0], [-0.0, -0.0, 0.0, 0.0, -0.0, 150.3]], 'warnings': [], 'nsites': 10}",0.0
658,mp-25436,TiPO4F,"{'Ti': 1.0, 'P': 1.0, 'O': 4.0, 'F': 1.0}",0.4241381444241961,2.9784318365572644,,0.0
659,mp-27664,TiPCl9,"{'Ti': 1.0, 'P': 1.0, 'Cl': 9.0}",0.06603733924240039,2.0606996063743344,,0.0
660,mp-27839,K2TiCl6,"{'K': 2.0, 'Ti': 1.0, 'Cl': 6.0}",0.17436915177993062,2.232695114770109,"{'G_Reuss': 5.0, 'G_VRH': 5.0, 'G_Voigt': 6.0, 'G_Voigt_Reuss_Hill': 5.0, 'K_Reuss': 12.0, 'K_VRH': 12.0, 'K_Voigt': 12.0, 'K_Voigt_Reuss_Hill': 12.0, 'elastic_anisotropy': 0.71, 'elastic_tensor': [[16.0, 10.0, 10.0, 0.0, 0.0, 0.0], [10.0, 16.0, 10.0, 0.0, 0.0, 0.0], [10.0, 10.0, 16.0, 0.0, 0.0, 0.0], [0.0, 0.0, 0.0, 7.0, 0.0, 0.0], [0.0, 0.0, 0.0, 0.0, 7.0, 0.0], [0.0, 0.0, 0.0, 0.0, 0.0, 7.0]], 'homogeneous_poisson': 0.31, 'poisson_ratio': 0.31, 'universal_anisotropy': 0.71, 'elastic_tensor_original': [[16.398268154916153, 9.617131091834738, 9.617131091834738, 0.0, 0.0, 0.0], [9.616622345911225, 16.39725358296856, 9.616622345911225, 0.0, 0.0, 0.0], [9.614824171913497, 9.614824171913497, 16.394647606293177, 0.0, 0.0, 0.0], [0.006223352058947346, 0.005424000063266636, 0.007671923252447243, 7.183473934563816, 0.0, 0.0], [0.0013335975956746964, 0.028339214719006127, 0.04973822715180044, 0.0, 7.1887080515579385, 0.0], [0.0001390433263519406, -2.863338975051868e-06, 9.393999253514254e-05, 0.0, 0.0, 7.183547032532857]], 'compliance_tensor': [[107.7, -39.8, -39.8, -0.0, 0.0, -0.0], [-39.8, 107.7, -39.8, -0.0, -0.0, 0.0], [-39.8, -39.8, 107.7, 0.0, -0.0, -0.0], [-0.0, -0.0, 0.0, 139.2, -0.0, -0.0], [0.0, -0.0, -0.0, -0.0, 139.2, -0.0], [-0.0, 0.0, -0.0, -0.0, -0.0, 139.2]], 'warnings': [], 'nsites': 9}",0.0
661,mp-28481,Ti(ClO4)4,"{'Ti': 1.0, 'Cl': 4.0, 'O': 16.0}",0.43512520847832226,2.2268552535861525,,0.0
662,mp-29298,Ba4Ti13O30,"{'Ba': 4.0, 'Ti': 13.0, 'O': 30.0}",0.5557631426781114,4.477076475672659,,0.0
663,mp-30656,TiGaNi,"{'Ti': 1.0, 'Ga': 1.0, 'Ni': 1.0}",0.14626959340348458,6.991897317964257,"{'G_Reuss': 61.0, 'G_VRH': 69.0, 'G_Voigt': 77.0, 'G_Voigt_Reuss_Hill': 69.0, 'K_Reuss': 146.0, 'K_VRH': 147.0, 'K_Voigt': 148.0, 'K_Voigt_Reuss_Hill': 147.0, 'elastic_anisotropy': 1.26, 'elastic_tensor': [[248.0, 85.0, 125.0, 0.0, 0.0, 0.0], [85.0, 248.0, 125.0, 0.0, 0.0, 0.0], [125.0, 125.0, 167.0, 0.0, 0.0, 0.0], [0.0, 0.0, 0.0, 96.0, 0.0, 0.0], [0.0, 0.0, 0.0, 0.0, 96.0, 0.0], [0.0, 0.0, 0.0, 0.0, 0.0, 81.0]], 'homogeneous_poisson': 0.3, 'poisson_ratio': 0.3, 'universal_anisotropy': 1.26, 'elastic_tensor_original': [[249.0780879517091, 85.55939153852323, 125.58572277967514, 0.0, 0.0, 0.0], [84.73339623758666, 248.09440002831255, 125.58253881023579, 0.0, 0.0, 0.0], [123.44243089086112, 123.4424713469817, 166.81807699420403, 0.0, 0.0, 0.0], [-0.000159896993813632, 0.00011272977402929659, 1.7186395017529775e-05, 96.2945836414549, 0.0, 0.0], [-0.0018686318511800877, -0.0020356717186885607, -0.0019195584774521917, 0.0, 96.31498937192842, 0.0], [6.4963339410839e-05, 0.00013047334554201843, 9.40533421353794e-05, 0.0, 0.0, 81.03710847190307]], 'compliance_tensor': [[6.5, 0.3, -5.0, 0.0, 0.0, 0.0], [0.3, 6.5, -5.0, 0.0, -0.0, 0.0], [-5.0, -5.0, 13.5, -0.0, -0.0, -0.0], [-0.0, 0.0, -0.0, 10.4, 0.0, 0.0], [-0.0, -0.0, 0.0, 0.0, 10.4, -0.0], [0.0, 0.0, -0.0, 0.0, -0.0, 12.3]], 'warnings': [], 'nsites': 9}",0.0
664,mp-3349,Sr3Ti2O7,"{'Sr': 3.0, 'Ti': 2.0, 'O': 7.0}",0.5821826987272434,4.905953288475624,"{'G_Reuss': 83.0, 'G_VRH': 83.0, 'G_Voigt': 84.0, 'G_Voigt_Reuss_Hill': 83.0, 'K_Reuss': 140.0, 'K_VRH': 140.0, 'K_Voigt': 140.0, 'K_Voigt_Reuss_Hill': 140.0, 'elastic_anisotropy': 0.05, 'elastic_tensor': [[265.0, 75.0, 84.0, 0.0, 0.0, 0.0], [75.0, 265.0, 84.0, 0.0, 0.0, 0.0], [84.0, 84.0, 246.0, 0.0, 0.0, 0.0], [0.0, 0.0, 0.0, 75.0, 0.0, 0.0], [0.0, 0.0, 0.0, 0.0, 75.0, 0.0], [0.0, 0.0, 0.0, 0.0, 0.0, 91.0]], 'homogeneous_poisson': 0.25, 'poisson_ratio': 0.25, 'universal_anisotropy': 0.05, 'elastic_tensor_original': [[264.84925053607276, 74.59860175884309, 84.52515667368148, 0.0, 0.0, 0.0], [74.60062895583252, 264.85126579432074, 84.52761502610372, 0.0, 0.0, 0.0], [84.16219339593174, 84.16219339593174, 245.88353724019072, 0.0, 0.0, 0.0], [-0.0015942252086764692, -0.00377268443794319, -0.019167419213990317, 75.36695473351995, 0.0, 0.0], [0.02214262938050325, 0.009044303972473914, 0.0005215506135187999, 0.0, 75.31618317046221, 0.0], [-9.833677767827917e-05, -9.944011225789818e-05, -5.2293392367253673e-05, 0.0, 0.0, 90.83200723691529]], 'compliance_tensor': [[4.4, -0.9, -1.2, -0.0, 0.0, 0.0], [-0.9, 4.4, -1.2, -0.0, -0.0, 0.0], [-1.2, -1.2, 4.9, 0.0, -0.0, 0.0], [-0.0, -0.0, 0.0, 13.3, -0.0, 0.0], [0.0, -0.0, -0.0, -0.0, 13.3, 0.0], [0.0, 0.0, 0.0, 0.0, 0.0, 11.0]], 'warnings': [], 'nsites': 12}",0.0
665,mp-3488,Na2Ti3O7,"{'Na': 2.0, 'Ti': 3.0, 'O': 7.0}",0.5310516106704863,3.345429369560711,"{'G_Reuss': 40.0, 'G_VRH': 42.0, 'G_Voigt': 45.0, 'G_Voigt_Reuss_Hill': 42.0, 'K_Reuss': 93.0, 'K_VRH': 96.0, 'K_Voigt': 100.0, 'K_Voigt_Reuss_Hill': 96.0, 'elastic_anisotropy': 0.66, 'elastic_tensor': [[154.0, 70.0, 61.0, 0.0, 18.0, 0.0], [70.0, 216.0, 72.0, 0.0, -1.0, 0.0], [61.0, 72.0, 119.0, 0.0, -6.0, 0.0], [0.0, 0.0, 0.0, 34.0, 0.0, 8.0], [18.0, -1.0, -6.0, 0.0, 42.0, 0.0], [0.0, 0.0, 0.0, 8.0, 0.0, 51.0]], 'homogeneous_poisson': 0.31, 'poisson_ratio': 0.31, 'universal_anisotropy': 0.66, 'elastic_tensor_original': [[216.403776710701, 72.43124466271928, 70.07119324738433, -1.1490261814750249, 0.0, 0.0], [72.37445619142908, 118.76324166012077, 61.57017950996384, -6.744643301178173, 0.0, 0.0], [70.48083106208004, 60.55888429586601, 153.8767089451468, 17.546289046292785, 0.0, 0.0], [-0.6644430709469987, -4.6556459335812335, 19.274318102825863, 42.44284423164396, 0.0, 0.0], [0.0, 0.0, 0.0, 0.0, 50.945630095273465, 7.9378512821521525], [-0.006330245655177607, -0.14980180496730677, -0.06230560442755644, -0.0019448309743863785, 8.09974419727334, 34.169624372636925]], 'compliance_tensor': [[9.5, -1.7, -4.0, 0.0, -4.7, 0.0], [-1.7, 6.1, -2.8, 0.0, 0.5, 0.0], [-4.0, -2.8, 12.4, 0.0, 3.3, 0.0], [0.0, 0.0, 0.0, 30.4, 0.0, -4.8], [-4.7, 0.5, 3.3, 0.0, 26.0, 0.0], [0.0, 0.0, 0.0, -4.8, 0.0, 20.4]], 'warnings': [], 'nsites': 24}",0.0
666,mp-38280,LiTiO2,"{'Li': 1.0, 'Ti': 1.0, 'O': 2.0}",0.6319469468382815,4.06672056516467,"{'G_Reuss': 121.0, 'G_VRH': 123.0, 'G_Voigt': 126.0, 'G_Voigt_Reuss_Hill': 123.0, 'K_Reuss': 166.0, 'K_VRH': 171.0, 'K_Voigt': 175.0, 'K_Voigt_Reuss_Hill': 171.0, 'elastic_anisotropy': 0.29, 'elastic_tensor': [[418.0, 100.0, 65.0, 0.0, 0.0, 0.0], [100.0, 418.0, 65.0, 0.0, 0.0, 0.0], [65.0, 65.0, 276.0, 0.0, 0.0, 0.0], [0.0, 0.0, 0.0, 99.0, 0.0, 0.0], [0.0, 0.0, 0.0, 0.0, 99.0, 0.0], [0.0, 0.0, 0.0, 0.0, 0.0, 139.0]], 'homogeneous_poisson': 0.21, 'poisson_ratio': 0.21, 'universal_anisotropy': 0.29, 'elastic_tensor_original': [[418.29989979806214, 100.40561409575186, 64.912373170728, 0.0, 0.0, 0.0], [100.40611812179961, 418.2836618580814, 64.90282913781965, 0.0, 0.0, 0.0], [65.80321435562321, 65.80321435562321, 276.4344809190649, 0.0, 0.0, 0.0], [4.06933681305621e-05, -0.0001125033897688509, -5.325001276090387e-05, 98.92258172854523, 0.0, 0.0], [-7.031332848588505e-05, 2.9323348477990293e-05, -4.7146638161639444e-05, 0.0, 98.92258589519543, 0.0], [1.6376707392105088e-05, -1.0919987090231631e-05, 2.9370072264089293e-05, 0.0, 0.0, 139.2184412017211]], 'compliance_tensor': [[2.6, -0.5, -0.5, 0.0, 0.0, -0.0], [-0.5, 2.6, -0.5, 0.0, 0.0, 0.0], [-0.5, -0.5, 3.8, -0.0, 0.0, -0.0], [0.0, 0.0, -0.0, 10.1, 0.0, 0.0], [0.0, 0.0, 0.0, 0.0, 10.1, 0.0], [-0.0, 0.0, -0.0, 0.0, 0.0, 7.2]], 'warnings': [], 'nsites': 8}",0.0
667,mp-4743,ErTiGe,"{'Er': 1.0, 'Ti': 1.0, 'Ge': 1.0}",0.14613450018120583,7.6929496315597525,,0.0
668,mp-4978,Ti2AlN,"{'Ti': 2.0, 'Al': 1.0, 'N': 1.0}",0.14107557034653057,4.264332410125586,"{'G_Reuss': 114.0, 'G_VRH': 115.0, 'G_Voigt': 115.0, 'G_Voigt_Reuss_Hill': 115.0, 'K_Reuss': 155.0, 'K_VRH': 155.0, 'K_Voigt': 155.0, 'K_Voigt_Reuss_Hill': 155.0, 'elastic_anisotropy': 0.06, 'elastic_tensor': [[305.0, 67.0, 93.0, 0.0, 0.0, 0.0], [67.0, 305.0, 93.0, 0.0, 0.0, 0.0], [93.0, 93.0, 281.0, 0.0, 0.0, 0.0], [0.0, 0.0, 0.0, 123.0, 0.0, 0.0], [0.0, 0.0, 0.0, 0.0, 123.0, 0.0], [0.0, 0.0, 0.0, 0.0, 0.0, 119.0]], 'homogeneous_poisson': 0.2, 'poisson_ratio': 0.2, 'universal_anisotropy': 0.06, 'elastic_tensor_original': [[305.03337914926124, 66.63102199993313, 93.9682282155867, 0.0, 0.0, 0.0], [67.69325283344757, 304.12498838641295, 94.03484983506594, 0.0, 0.0, 0.0], [92.84831361182248, 92.84820024496612, 281.05153551878334, 0.0, 0.0, 0.0], [-3.890294638031055e-05, -6.975019840224858e-05, 0.00017985322027919172, 123.23678484870243, 0.0, 0.0], [0.00015271973170207867, 4.3346850536248536e-05, 8.025620959505778e-05, 0.0, 123.18609078016995, 0.0], [8.533290693950066e-05, -3.083688924465368e-05, 9.999294564277783e-05, 0.0, 0.0, 118.62902468631336]], 'compliance_tensor': [[3.7, -0.5, -1.1, -0.0, -0.0, -0.0], [-0.5, 3.7, -1.1, -0.0, -0.0, -0.0], [-1.1, -1.1, 4.3, 0.0, -0.0, 0.0], [-0.0, -0.0, 0.0, 8.1, -0.0, -0.0], [0.0, 0.0, -0.0, -0.0, 8.1, -0.0], [-0.0, -0.0, 0.0, -0.0, -0.0, 8.4]], 'warnings': [], 'nsites': 8}",0.0
669,mp-504427,Ti3PbO7,"{'Ti': 3.0, 'Pb': 1.0, 'O': 7.0}",0.5259390341944812,5.587123782606896,,0.0
670,mp-505171,NaTiCuS3,"{'Na': 1.0, 'Ti': 1.0, 'Cu': 1.0, 'S': 3.0}",0.17934958708068052,3.4339575806233658,,0.0
671,mp-505801,Eu2Ti2O7,"{'Eu': 2.0, 'Ti': 2.0, 'O': 7.0}",0.5691660935413625,6.179806214844309,,0.0
672,mp-510409,TiSiNi,"{'Ti': 1.0, 'Si': 1.0, 'Ni': 1.0}",0.1254074766895259,5.670689314807067,"{'G_Reuss': 102.0, 'G_VRH': 104.0, 'G_Voigt': 106.0, 'G_Voigt_Reuss_Hill': 104.0, 'K_Reuss': 176.0, 'K_VRH': 177.0, 'K_Voigt': 177.0, 'K_Voigt_Reuss_Hill': 177.0, 'elastic_anisotropy': 0.19, 'elastic_tensor': [[287.0, 98.0, 124.0, 0.0, 0.0, 0.0], [98.0, 326.0, 130.0, 0.0, 0.0, 0.0], [124.0, 130.0, 274.0, 0.0, 0.0, 0.0], [0.0, 0.0, 0.0, 114.0, 0.0, 0.0], [0.0, 0.0, 0.0, 0.0, 129.0, 0.0], [0.0, 0.0, 0.0, 0.0, 0.0, 108.0]], 'homogeneous_poisson': 0.25, 'poisson_ratio': 0.25, 'universal_anisotropy': 0.19, 'elastic_tensor_original': [[274.2422296227419, 126.1100543783054, 130.79798210494258, 0.0, 0.0, 0.0], [121.99432931829597, 287.03525541790793, 94.82128989684612, 0.0, 0.0, 0.0], [129.28788649573247, 100.9927234574773, 325.98136508993196, 0.0, 0.0, 0.0], [5.579994483576002e-06, -4.718662001486288e-05, 9.003324432034277e-06, 107.93556130988463, 0.0, 0.0], [-0.006335508539967311, -0.006099911544535194, -0.005828981693315498, 0.0, 113.69091086335727, 0.0], [-0.0015113361236548564, -0.0017826825557135967, -0.0019234056202885458, 0.0, 0.0, 129.41134001204784]], 'compliance_tensor': [[4.4, -0.7, -1.7, 0.0, -0.0, 0.0], [-0.7, 3.9, -1.5, 0.0, 0.0, 0.0], [-1.7, -1.5, 5.1, 0.0, 0.0, 0.0], [0.0, 0.0, 0.0, 8.8, 0.0, 0.0], [-0.0, 0.0, 0.0, 0.0, 7.7, 0.0], [0.0, 0.0, 0.0, 0.0, 0.0, 9.3]], 'warnings': [], 'nsites': 12}",0.0
673,mp-540763,TiMn2O4,"{'Ti': 1.0, 'Mn': 2.0, 'O': 4.0}",0.4538141650183758,4.352966895438006,,0.22786428571208717
674,mp-540784,Rb2Ti6O13,"{'Rb': 2.0, 'Ti': 6.0, 'O': 13.0}",0.5779856077144089,3.927662464862761,,0.0
675,mp-541238,KTi2(PO4)3,"{'K': 1.0, 'Ti': 2.0, 'P': 3.0, 'O': 12.0}",0.5036800953405834,2.865249825722086,,0.0
676,mp-541754,TiCu2Te3,"{'Ti': 1.0, 'Cu': 2.0, 'Te': 3.0}",0.24174447464810028,6.5101162772345695,"{'G_Reuss': 24.0, 'G_VRH': 25.0, 'G_Voigt': 25.0, 'G_Voigt_Reuss_Hill': 25.0, 'K_Reuss': 37.0, 'K_VRH': 39.0, 'K_Voigt': 40.0, 'K_Voigt_Reuss_Hill': 39.0, 'elastic_anisotropy': 0.32, 'elastic_tensor': [[88.0, 26.0, 16.0, 0.0, 7.0, 0.0], [26.0, 76.0, 21.0, 0.0, 7.0, 0.0], [16.0, 21.0, 71.0, 0.0, 9.0, 0.0], [0.0, 0.0, 0.0, 27.0, 0.0, 1.0], [7.0, 7.0, 9.0, 0.0, 21.0, 0.0], [0.0, 0.0, 0.0, 1.0, 0.0, 21.0]], 'homogeneous_poisson': 0.24, 'poisson_ratio': 0.24, 'universal_anisotropy': 0.32, 'elastic_tensor_original': [[75.93174248937851, 23.632058273755824, 17.454915920113883, -7.472292326904281, 0.0, 0.0], [26.04730447117891, 83.54860321649912, 15.695810450178472, -10.686317220300703, 0.0, 0.0], [28.010921834507744, 16.40226162231301, 74.8971702525244, -7.415504102705419, 0.0, 0.0], [-6.783153458576099, -10.69735979209742, -6.133071574080725, 21.5540055138286, 0.0, 0.0], [-0.0005435508379491794, -0.0005881342400130152, -0.001033434926497695, -0.0003809339205888454, 26.906634163149917, -0.1642217698343], [0.0, 0.0, 0.0, 0.0, -0.6467857862429354, 20.947171974357413]], 'compliance_tensor': [[13.0, -3.9, -1.4, 0.0, -2.8, 0.0], [-3.9, 15.7, -3.5, 0.0, -2.2, 0.0], [-1.4, -3.5, 16.0, 0.0, -4.8, 0.0], [0.0, 0.0, 0.0, 37.5, 0.0, -2.0], [-2.8, -2.2, -4.8, 0.0, 50.7, 0.0], [0.0, 0.0, 0.0, -2.0, 0.0, 47.4]], 'warnings': [], 'nsites': 12}",0.0
677,mp-554704,TiPHO5,"{'Ti': 1.0, 'P': 1.0, 'H': 1.0, 'O': 5.0}",0.5046011748554428,2.964485308918337,,0.0
678,mp-555319,Rb3Ti3(PO4)5,"{'Rb': 3.0, 'Ti': 3.0, 'P': 5.0, 'O': 20.0}",0.526191271494518,3.2347797169816936,,0.41940209674695694
679,mp-557626,Gd2TiO5,"{'Gd': 2.0, 'Ti': 1.0, 'O': 5.0}",0.48279798287527637,6.460923279978999,,0.0
680,mp-562050,Cs2NaTiF6,"{'Cs': 2.0, 'Na': 1.0, 'Ti': 1.0, 'F': 6.0}",0.37278932975495765,4.1262269622606045,,0.0
681,mp-562797,Ti2Co(PO5)2,"{'Ti': 2.0, 'Co': 1.0, 'P': 2.0, 'O': 10.0}",0.5141072105323142,3.4847955990019495,,0.0
682,mp-567491,Rb4Ti2P6Se25,"{'Rb': 4.0, 'Ti': 2.0, 'P': 6.0, 'Se': 25.0}",0.15719060547071734,3.477500823252881,,0.0