,mp_id,Formula,Composition,IPF,Density,Elastic_Tensor,E_above_Hull
242,mp-9517,SrTiN2,"{'Sr': 1.0, 'Ti': 1.0, 'N': 2.0}",0.24236080481823008,4.596150108497811,"{'G_Reuss': 38.0, 'G_VRH': 50.0, 'G_Voigt': 62.0, 'G_Voigt_Reuss_Hill': 50.0, 'K_Reuss': 120.0, 'K_VRH': 121.0, 'K_Voigt': 123.0, 'K_Voigt_Reuss_Hill': 121.0, 'elastic_anisotropy': 3.15, 'elastic_tensor': [[180.0, 151.0, 67.0, 0.0, 0.0, 0.0], [151.0, 180.0, 67.0, 0.0, 0.0, 0.0], [67.0, 67.0, 181.0, 0.0, 0.0, 0.0], [0.0, 0.0, 0.0, 53.0, 0.0, 0.0], [0.0, 0.0, 0.0, 0.0, 53.0, 0.0], [0.0, 0.0, 0.0, 0.0, 0.0, 119.0]], 'homogeneous_poisson': 0.32, 'poisson_ratio': 0.32, 'universal_anisotropy': 3.15, 'elastic_tensor_original': [[179.7597363341185, 151.2105224418217, 66.27315520406582, 0.0, 0.0, 0.0], [151.21381909477446, 179.76109534628299, 66.27804253262777, 0.0, 0.0, 0.0], [66.7308420598951, 66.7308420598951, 180.65148404966376, 0.0, 0.0, 0.0], [0.00022277377875329658, 6.767151576253487e-06, 4.813640644328144e-05, 53.38366333063883, 0.0, 0.0], [-2.4535378847703356e-05, -0.00032183065857591266, -0.00016010897442399284, 0.0, 53.38354658621601, 0.0], [-5.440031393478873, 5.4398988996288224, -7.406028882943755e-05, 0.0, 0.0, 119.00086712919054]], 'compliance_tensor': [[19.3, -15.7, -1.3, 0.0, -0.0, -0.0], [-15.7, 19.3, -1.3, 0.0, 0.0, 0.0], [-1.3, -1.3, 6.5, 0.0, -0.0, -0.0], [0.0, 0.0, 0.0, 18.7, 0.0, 0.0], [-0.0, 0.0, -0.0, 0.0, 18.7, 0.0], [-0.0, 0.0, -0.0, 0.0, 0.0, 8.4]], 'warnings': [], 'nsites': 8}",0.0
243,mp-9615,LiTiS2,"{'Li': 1.0, 'Ti': 1.0, 'S': 2.0}",0.1776784251954564,3.0916934550698034,"{'G_Reuss': 47.0, 'G_VRH': 48.0, 'G_Voigt': 49.0, 'G_Voigt_Reuss_Hill': 48.0, 'K_Reuss': 67.0, 'K_VRH': 68.0, 'K_Voigt': 68.0, 'K_Voigt_Reuss_Hill': 68.0, 'elastic_anisotropy': 0.18, 'elastic_tensor': [[150.0, 37.0, 30.0, -3.0, 0.0, 0.0], [37.0, 150.0, 30.0, 3.0, 0.0, 0.0], [30.0, 30.0, 122.0, 0.0, 0.0, 0.0], [-3.0, 3.0, 0.0, 40.0, 0.0, 0.0], [0.0, 0.0, 0.0, 0.0, 40.0, -3.0], [0.0, 0.0, 0.0, 0.0, -3.0, 57.0]], 'homogeneous_poisson': 0.21, 'poisson_ratio': 0.21, 'universal_anisotropy': 0.18, 'elastic_tensor_original': [[152.02845815252937, 36.097843377306596, 30.390071132231103, 4.83563223876523, 0.0, 0.0], [36.11668182867373, 150.19082601656606, 29.405943806157875, -4.152967868169264, 0.0, 0.0], [29.596359601602746, 29.596373139889852, 121.88838797823368, 0.0, 0.0, 0.0], [2.3972771552918446, -1.879176584878549, -0.16020572108626183, 39.60596471192716, 0.0, 0.0], [-5.636499327420864e-06, -2.335331722115577e-05, -3.529638606479378e-05, 1.1963424020113978e-05, 39.862169472051946, 2.2383541011747687], [0.055707893537772765, 0.055101460736462445, 0.09312665645571364, 0.00969970912257922, 2.7132165698396613, 55.93765587490306]], 'compliance_tensor': [[7.3, -1.5, -1.4, 0.6, -0.0, -0.0], [-1.5, 7.3, -1.4, -0.6, -0.0, -0.0], [-1.4, -1.4, 8.9, -0.0, -0.0, 0.0], [0.6, -0.6, 0.0, 25.3, -0.0, -0.0], [0.0, -0.0, -0.0, -0.0, 25.3, 1.3], [-0.0, -0.0, 0.0, -0.0, 1.3, 17.7]], 'warnings': [], 'nsites': 4}",0.0
244,mp-976257,KTi5Se8,"{'K': 1.0, 'Ti': 5.0, 'Se': 8.0}",0.20463329430676433,4.946787284945334,,0.0
245,mp-9920,TiS3,"{'Ti': 1.0, 'S': 3.0}",0.13708989852209225,2.940905884129678,"{'G_Reuss': 3.0, 'G_VRH': 11.0, 'G_Voigt': 20.0, 'G_Voigt_Reuss_Hill': 11.0, 'K_Reuss': 8.0, 'K_VRH': 19.0, 'K_Voigt': 30.0, 'K_Voigt_Reuss_Hill': 19.0, 'elastic_anisotropy': 38.45, 'elastic_tensor': [[8.0, 3.0, -0.0, 0.0, 0.0, 0.0], [3.0, 141.0, 16.0, 0.0, -0.0, 0.0], [-0.0, 16.0, 85.0, 0.0, 0.0, 0.0], [0.0, 0.0, 0.0, 28.0, 0.0, -0.0], [0.0, -0.0, 0.0, 0.0, 1.0, 0.0], [0.0, 0.0, 0.0, -0.0, 0.0, 2.0]], 'homogeneous_poisson': 0.25, 'poisson_ratio': 0.25, 'universal_anisotropy': 38.45, 'elastic_tensor_original': [[140.98466287259694, 15.184053504650912, 4.3890011869914085, -0.539657515703004, 0.0, 0.0], [16.11778679212164, 85.10779026205545, 0.08233452264080514, 0.4649387444784383, 0.0, 0.0], [2.4534242600764484, -0.20977966555499994, 8.418334061705947, -0.12923819631747846, 0.0, 0.0], [0.14587859652487684, 0.2185293368131484, 0.5620781749383501, 0.9196930695643925, 0.0, 0.0], [0.0020409741434586227, -0.007096494513945828, -0.0006011093424187702, 0.00025185637745773066, 1.5246341173344227, -0.11029880601825082], [-0.00010840357424697129, 3.10067251434578e-05, -0.00015906373371992602, 2.9330036697615865e-05, -0.020125559762523643, 27.79451320402559]], 'compliance_tensor': [[120.8, -3.1, 0.8, 0.0, -29.4, 0.0], [-3.1, 7.3, -1.4, 0.0, 2.8, 0.0], [0.8, -1.4, 12.0, 0.0, -5.0, 0.0], [0.0, 0.0, 0.0, 36.0, 0.0, 1.5], [-29.4, 2.8, -5.0, 0.0, 1096.7, 0.0], [0.0, 0.0, 0.0, 1.5, 0.0, 656.0]], 'warnings': ['c11 and c23 are within 5% or c23 is greater than c11'], 'nsites': 8}",0.0
246,mp-995201,Ti5Si3C,"{'Ti': 5.0, 'Si': 3.0, 'C': 1.0}",0.12022881103452641,4.4578708890577,,0.0
247,mp-998949,TiPt,"{'Ti': 1.0, 'Pt': 1.0}",0.1509596502551732,12.760333985989046,"{'G_Reuss': -34.0, 'G_VRH': 15.0, 'G_Voigt': 65.0, 'G_Voigt_Reuss_Hill': 15.0, 'K_Reuss': 192.0, 'K_VRH': 192.0, 'K_Voigt': 192.0, 'K_Voigt_Reuss_Hill': 192.0, 'elastic_anisotropy': -14.5, 'elastic_tensor': [[315.0, 146.0, 121.0, -0.0, -0.0, 0.0], [146.0, 316.0, 100.0, -0.0, 0.0, 0.0], [121.0, 100.0, 366.0, -0.0, -0.0, 0.0], [-0.0, -0.0, -0.0, -5.0, 0.0, 0.0], [-0.0, 0.0, -0.0, 0.0, 65.0, -0.0], [0.0, 0.0, 0.0, 0.0, -0.0, 54.0]], 'homogeneous_poisson': 0.46, 'poisson_ratio': 0.46, 'universal_anisotropy': -14.5, 'elastic_tensor_original': [[366.4400397446345, 121.40024229229316, 99.24851084197401, 0.6013568072349308, -0.17846380730315436, -0.07447610540613822], [120.73218437176727, 314.6312213428156, 146.20388603098897, -0.052905021582490934, 0.23420308000043172, 0.3993408986319766], [100.25200852919681, 145.7150808307758, 316.01561810713423, -0.5172731781335141, -1.6172310351250383, -0.16797171872991734], [0.49923647588847603, 0.25993773238160983, -0.03856223692261469, 53.54622211711266, 0.3582371855361521, -0.006261116381693497], [0.10128072104311901, -0.18501222890661428, 0.07495368888895321, 0.023844971478013857, -4.976433379399967, -0.08783777465885362], [-0.008872458052753851, -0.05082186145928096, -0.00042424146088491146, -0.12649500235924707, 0.19099780908049233, 64.61502581319179]], 'compliance_tensor': [[4.3, -1.7, -1.0, -0.0, 0.0, -0.0], [-1.7, 4.1, -0.6, 0.0, -0.0, -0.0], [-1.0, -0.6, 3.2, -0.1, 0.0, 0.0], [-0.0, 0.0, -0.1, -200.9, -0.0, 0.0], [0.0, -0.0, 0.0, -0.0, 15.5, 0.0], [-0.0, -0.0, 0.0, 0.0, 0.0, 18.7]], 'warnings': ['Elastic tensor has a negative eigenvalue', 'One or more K, G below 2 GPa'], 'nsites': 4}",0.0
248,mp-998972,TiAu,"{'Ti': 1.0, 'Au': 1.0}",0.22424626061355543,11.810856039286767,,0.0
249,mp-1025200,Eu2TiO4,"{'Eu': 2.0, 'Ti': 1.0, 'O': 4.0}",0.5295032503663019,7.235616986713232,"{'G_Reuss': 69.0, 'G_VRH': 70.0, 'G_Voigt': 71.0, 'G_Voigt_Reuss_Hill': 70.0, 'K_Reuss': 120.0, 'K_VRH': 122.0, 'K_Voigt': 125.0, 'K_Voigt_Reuss_Hill': 122.0, 'elastic_anisotropy': 0.19, 'elastic_tensor': [[218.0, 33.0, 93.0, 0.0, 0.0, 0.0], [33.0, 218.0, 93.0, 0.0, 0.0, 0.0], [93.0, 93.0, 253.0, 0.0, 0.0, 0.0], [0.0, 0.0, 0.0, 68.0, 0.0, 0.0], [0.0, 0.0, 0.0, 0.0, 68.0, 0.0], [0.0, 0.0, 0.0, 0.0, 0.0, 64.0]], 'homogeneous_poisson': 0.26, 'poisson_ratio': 0.26, 'universal_anisotropy': 0.19, 'elastic_tensor_original': [[218.0116058859462, 32.55663120524353, 101.90562344069959, -3.3000590752685955e-05, 0.0, 0.0], [32.55577523427264, 218.0116058847232, 101.90428379280377, -0.00011264900675636318, 1.973252992002136e-06, 0.0], [81.74400859252094, 84.52693755138417, 252.90154343852086, -1.6097608208439493, 2.0199661459136278e-05, -1.9999664811026017e-07], [0.0, -3.688164440177765e-05, -4.783487567487059e-05, 67.87036839602474, -2.0760555194955118e-08, 5.417333774800712e-06], [1.0834667588953641e-05, 0.0, 0.0, 2.0758919147602153e-08, 67.87036839602474, -1.844082405846864e-05], [0.578864848352858, -0.5788722672240099, 4.656525430467467e-09, -0.006598988621091736, 1.1737896817013276, 64.45375766253308]], 'compliance_tensor': [[5.4, 0.0, -2.0, -0.0, -0.0, -0.0], [0.0, 5.4, -2.0, 0.0, -0.0, -0.0], [-2.0, -2.0, 5.4, 0.0, -0.0, -0.0], [-0.0, 0.0, 0.0, 14.7, -0.0, -0.0], [-0.0, -0.0, -0.0, -0.0, 14.7, 0.0], [-0.0, -0.0, -0.0, -0.0, 0.0, 15.5]], 'warnings': ['Contains a rare earth element'], 'nsites': 7}",0.0
250,mp-1029572,CaTiN2,"{'Ca': 1.0, 'Ti': 1.0, 'N': 2.0}",0.20193866817925665,3.5711819489204477,,0.0
251,mp-1078058,Ti(CrS2)2,"{'Ti': 1.0, 'Cr': 2.0, 'S': 4.0}",0.1766692376132863,3.919922812899241,,0.0
252,mp-1079111,EuTiO3,"{'Eu': 1.0, 'Ti': 1.0, 'O': 3.0}",0.5743258007184362,6.765258064618132,,0.0
253,mp-1092281,Ti2TlC,"{'Ti': 2.0, 'Tl': 1.0, 'C': 1.0}",0.24394240156372188,8.318848354634307,,0.0
254,mp-1094043,Ti5InS8,"{'Ti': 5.0, 'In': 1.0, 'S': 8.0}",0.1496175991625372,3.865112149267318,,0.0
255,mp-1102138,TiCoP,"{'Ti': 1.0, 'Co': 1.0, 'P': 1.0}",0.1414710690420254,6.242834006435425,,0.0
256,mp-1102195,TiSiPt,"{'Ti': 1.0, 'Si': 1.0, 'Pt': 1.0}",0.12058727723119898,9.990649843718241,,0.0
257,mp-11580,TiCrP,"{'Ti': 1.0, 'Cr': 1.0, 'P': 1.0}",0.17598031235210257,5.652777279831061,"{'G_Reuss': 121.0, 'G_VRH': 123.0, 'G_Voigt': 124.0, 'G_Voigt_Reuss_Hill': 123.0, 'K_Reuss': 204.0, 'K_VRH': 204.0, 'K_Voigt': 205.0, 'K_Voigt_Reuss_Hill': 204.0, 'elastic_anisotropy': 0.13, 'elastic_tensor': [[369.0, 136.0, 133.0, 0.0, 0.0, 0.0], [136.0, 369.0, 133.0, 0.0, 0.0, 0.0], [133.0, 133.0, 306.0, 0.0, 0.0, 0.0], [0.0, 0.0, 0.0, 145.0, 0.0, 0.0], [0.0, 0.0, 0.0, 0.0, 145.0, 0.0], [0.0, 0.0, 0.0, 0.0, 0.0, 116.0]], 'homogeneous_poisson': 0.25, 'poisson_ratio': 0.25, 'universal_anisotropy': 0.13, 'elastic_tensor_original': [[367.7572025963853, 136.58533536858812, 134.18406526307373, 0.0, 0.0, 0.0], [138.33368033505633, 368.7011491065396, 131.60157458072229, 0.0, 0.0, 0.0], [132.27291530107527, 132.27288138312528, 306.0512915509801, 0.0, 0.0, 0.0], [0.00020477161197844304, 0.00018112326903257722, 0.00030698991053111884, 145.42521391433957, 0.0, 0.0], [0.0003777057534356753, 0.0002694155534867713, 0.0003280940010410546, 0.0, 145.55759781496684, 0.0], [-0.00043552044579960286, 0.0017346656044977303, 0.0004952500500894285, 0.0, 0.0, 117.45601163584064]], 'compliance_tensor': [[3.4, -0.9, -1.1, -0.0, 0.0, -0.0], [-0.9, 3.4, -1.1, -0.0, 0.0, -0.0], [-1.1, -1.1, 4.2, 0.0, -0.0, 0.0], [-0.0, -0.0, 0.0, 6.9, -0.0, -0.0], [0.0, 0.0, -0.0, -0.0, 6.9, 0.0], [-0.0, -0.0, 0.0, -0.0, 0.0, 8.6]], 'warnings': [], 'nsites': 9}",0.0
258,mp-11750,Ti6Si2B,"{'Ti': 6.0, 'Si': 2.0, 'B': 1.0}",0.12951650301583187,4.44587873057504,"{'G_Reuss': 102.0, 'G_VRH': 104.0, 'G_Voigt': 105.0, 'G_Voigt_Reuss_Hill': 104.0, 'K_Reuss': 148.0, 'K_VRH': 149.0, 'K_Voigt': 149.0, 'K_Voigt_Reuss_Hill': 149.0, 'elastic_anisotropy': 0.13, 'elastic_tensor': [[294.0, 80.0, 92.0, 0.0, 0.0, 0.0], [80.0, 294.0, 92.0, 0.0, 0.0, 0.0], [92.0, 92.0, 230.0, 0.0, 0.0, 0.0], [0.0, 0.0, 0.0, 116.0, 0.0, 0.0], [0.0, 0.0, 0.0, 0.0, 116.0, 0.0], [0.0, 0.0, 0.0, 0.0, 0.0, 107.0]], 'homogeneous_poisson': 0.22, 'poisson_ratio': 0.22, 'universal_anisotropy': 0.13, 'elastic_tensor_original': [[294.560545604099, 78.52889408396028, 92.01396128284757, 0.0, 0.0, 0.0], [78.6138907030916, 294.819678332379, 92.36174152191393, 0.0, 0.0, 0.0], [92.0341108424668, 92.03411348233125, 230.34962055362092, 0.0, 0.0, 0.0], [-0.00020466336270731387, 5.3173274214478666e-05, -3.958325773798502e-05, 116.30827324269347, 0.0, 0.0], [-0.00010301982680449212, 2.4913291450135005e-05, 0.00010446315771332396, 0.0, 116.36630325177012, 0.0], [-0.0001089831491889982, 2.748995355061457e-05, -8.6213187661404e-05, 0.0, 0.0, 105.9472707502617]], 'compliance_tensor': [[4.0, -0.7, -1.3, -0.0, -0.0, 0.0], [-0.7, 4.0, -1.3, -0.0, -0.0, 0.0], [-1.3, -1.3, 5.4, 0.0, 0.0, -0.0], [-0.0, 0.0, 0.0, 8.6, 0.0, 0.0], [-0.0, -0.0, 0.0, 0.0, 8.6, 0.0], [0.0, 0.0, -0.0, 0.0, 0.0, 9.3]], 'warnings': [], 'nsites': 9}",0.0
259,mp-1185238,LiTiPd2,"{'Li': 1.0, 'Ti': 1.0, 'Pd': 2.0}",0.18265655046076795,7.573937276899912,,0.0
260,mp-1187420,Ti2MoOs,"{'Ti': 2.0, 'Mo': 1.0, 'Os': 1.0}",0.1374327437961094,10.37333518977021,,0.0
261,mp-1187459,TiGaCu2,"{'Ti': 1.0, 'Ga': 1.0, 'Cu': 2.0}",0.16601798832174278,7.457155036058624,,0.4882549999996044
262,mp-1193121,Ti6Al16Ir7,"{'Ti': 6.0, 'Al': 16.0, 'Ir': 7.0}",0.10988971552351333,7.646609696845437,,0.0
263,mp-1193912,Ti3(Ni10B3)2,"{'Ti': 3.0, 'Ni': 20.0, 'B': 6.0}",0.1514099485183878,8.000138815874742,,0.0
264,mp-1200740,Yb(TiAl10)2,"{'Yb': 1.0, 'Ti': 2.0, 'Al': 20.0}",0.09148643715977324,3.3854684866936675,,0.0
265,mp-1201705,TiCoGe2,"{'Ti': 1.0, 'Co': 1.0, 'Ge': 2.0}",0.1468755541591903,7.396439011631782,,0.0
266,mp-1205304,TiI2O7,"{'Ti': 1.0, 'I': 2.0, 'O': 7.0}",0.4941714290859047,4.3221975824641055,,0.0
267,mp-1208170,TiVP,"{'Ti': 1.0, 'V': 1.0, 'P': 1.0}",0.12904965493588097,5.294103982610546,,0.0
268,mp-1208205,TiGeRh,"{'Ti': 1.0, 'Ge': 1.0, 'Rh': 1.0}",0.1353109997191916,8.054988061715019,,0.0
269,mp-1208217,TiAsRu,"{'Ti': 1.0, 'As': 1.0, 'Ru': 1.0}",0.11008718482136387,8.181825297599206,,0.0
270,mp-1208222,Ti11CuP8,"{'Ti': 11.0, 'Cu': 1.0, 'P': 8.0}",0.12184999572457103,4.664087576245221,,0.0
271,mp-1208242,Ti6Be15Cu8,"{'Ti': 6.0, 'Be': 15.0, 'Cu': 8.0}",0.15092841003425797,4.973035850871362,,0.0
272,mp-1208248,Ti2Cr4Si5,"{'Ti': 2.0, 'Cr': 4.0, 'Si': 5.0}",0.15914853642552124,5.2423894674580165,,0.0
273,mp-1216640,TiZnGa2,"{'Ti': 1.0, 'Zn': 1.0, 'Ga': 2.0}",0.14894091499458706,6.853706285400815,,0.0
274,mp-1216692,TiNbB4,"{'Ti': 1.0, 'Nb': 1.0, 'B': 4.0}",0.11273800186176813,5.692236687991406,,0.0
275,mp-1216698,TiSeS,"{'Ti': 1.0, 'Se': 1.0, 'S': 1.0}",0.14407916981278,3.8787682223709585,,0.0
276,mp-1216850,TiCuNi,"{'Ti': 1.0, 'Cu': 1.0, 'Ni': 1.0}",0.16939408778782497,7.255741380696116,,0.0
277,mp-1216876,TiGaNi6,"{'Ti': 1.0, 'Ga': 1.0, 'Ni': 6.0}",0.15918744862207487,8.498689133353398,,0.0
278,mp-1217079,Ti2Si6Mo,"{'Ti': 2.0, 'Si': 6.0, 'Mo': 1.0}",0.08828771803693472,4.764735123751068,,0.0
279,mp-1217094,Ti3Nb3Sn2,"{'Ti': 3.0, 'Nb': 3.0, 'Sn': 2.0}",0.13117451262234786,7.376404914297312,,0.0
280,mp-1217124,Ti2Co3Sn2,"{'Ti': 2.0, 'Co': 3.0, 'Sn': 2.0}",0.1453818035401268,7.858763314243779,,0.0
281,mp-1217125,Ti4GaC3,"{'Ti': 4.0, 'Ga': 1.0, 'C': 3.0}",0.13060286462772822,5.145006866047625,,0.0
282,mp-1217162,Ti2Co3Si,"{'Ti': 2.0, 'Co': 3.0, 'Si': 1.0}",0.15492602121625793,6.704837495205964,,0.0
283,mp-1217185,Ti3CoS6,"{'Ti': 3.0, 'Co': 1.0, 'S': 6.0}",0.16004406730465043,3.917687101058369,,0.8127524999910207
284,mp-1217201,Ti4Mn5V3,"{'Ti': 4.0, 'Mn': 5.0, 'V': 3.0}",0.13604804659284922,6.36654079559715,,0.0
285,mp-1217250,Ti10(GaSb)3,"{'Ti': 10.0, 'Ga': 3.0, 'Sb': 3.0}",0.13537293725898125,6.136527053816092,,0.0
286,mp-1217391,Ti13Al9Co8,"{'Ti': 13.0, 'Al': 9.0, 'Co': 8.0}",0.1408969146993026,5.174539766669322,,0.0
287,mp-1217975,Ta3TiB4,"{'Ta': 3.0, 'Ti': 1.0, 'B': 4.0}",0.11906297905510821,11.745612329750081,,0.0
288,mp-12244,Cs3TiF7,"{'Cs': 3.0, 'Ti': 1.0, 'F': 7.0}",0.367500391232882,4.0477713148324925,,0.0
289,mp-13666,Ti(PS3)2,"{'Ti': 1.0, 'P': 2.0, 'S': 6.0}",0.08447852320635943,2.008330810195562,,0.0
290,mp-1539332,TiZnF6,"{'Ti': 1.0, 'Zn': 1.0, 'F': 6.0}",0.12693021158323858,3.3618116893898695,,0.0
291,mp-1540712,Ca2Ti3O8,"{'Ca': 2.0, 'Ti': 3.0, 'O': 8.0}",0.5319979469445714,3.5632025927158706,,0.0
292,mp-16356,TiNiGe,"{'Ti': 1.0, 'Ni': 1.0, 'Ge': 1.0}",0.14756095541362443,7.085254895184842,"{'G_Reuss': 82.0, 'G_VRH': 83.0, 'G_Voigt': 85.0, 'G_Voigt_Reuss_Hill': 83.0, 'K_Reuss': 157.0, 'K_VRH': 157.0, 'K_Voigt': 158.0, 'K_Voigt_Reuss_Hill': 157.0, 'elastic_anisotropy': 0.18, 'elastic_tensor': [[242.0, 96.0, 112.0, 0.0, 0.0, 0.0], [96.0, 287.0, 120.0, 0.0, 0.0, 0.0], [112.0, 120.0, 236.0, 0.0, 0.0, 0.0], [0.0, 0.0, 0.0, 85.0, 0.0, 0.0], [0.0, 0.0, 0.0, 0.0, 108.0, 0.0], [0.0, 0.0, 0.0, 0.0, 0.0, 86.0]], 'homogeneous_poisson': 0.27, 'poisson_ratio': 0.27, 'universal_anisotropy': 0.18, 'elastic_tensor_original': [[236.46923663403862, 108.74947583728613, 116.0654166675622, 0.0, 0.0, 0.0], [115.13558672893275, 242.13878987626768, 93.58768906188332, 0.0, 0.0, 0.0], [123.55669257031157, 97.54371367421487, 287.411203728755, 0.0, 0.0, 0.0], [0.0005804908392972619, 0.0007367674611356501, 0.00031395735925868006, 85.53297477488096, 0.0, 0.0], [-0.0011021695035329858, -0.0009528195247827082, -0.0008794363054839294, 0.0, 84.58996305744155, 0.0], [0.4175981875908071, 0.4421534893051313, 0.431461873642353, 0.0, 0.0, 107.5799743651704]], 'compliance_tensor': [[5.5, -0.9, -2.1, 0.0, -0.0, 0.0], [-0.9, 4.6, -1.9, 0.0, -0.0, 0.0], [-2.1, -1.9, 6.2, 0.0, 0.0, 0.0], [0.0, 0.0, 0.0, 11.8, 0.0, 0.0], [-0.0, -0.0, 0.0, 0.0, 9.3, 0.0], [0.0, 0.0, 0.0, 0.0, 0.0, 11.7]], 'warnings': [], 'nsites': 12}",0.0
293,mp-17196,TiAs2O7,"{'Ti': 1.0, 'As': 2.0, 'O': 7.0}",0.4362510897801754,3.5248073558898763,,0.0
294,mp-17559,Y2TiO5,"{'Y': 2.0, 'Ti': 1.0, 'O': 5.0}",0.488968517101932,4.60410897459943,,0.0
295,mp-19950,Dy2Ti3Si4,"{'Dy': 2.0, 'Ti': 3.0, 'Si': 4.0}",0.139736558670002,5.9854967832930335,,0.0
296,mp-20661,Ti2PbC,"{'Ti': 2.0, 'Pb': 1.0, 'C': 1.0}",0.17689840656814365,8.250785346746342,"{'G_Reuss': 72.0, 'G_VRH': 72.0, 'G_Voigt': 73.0, 'G_Voigt_Reuss_Hill': 72.0, 'K_Reuss': 117.0, 'K_VRH': 118.0, 'K_Voigt': 119.0, 'K_Voigt_Reuss_Hill': 118.0, 'elastic_anisotropy': 0.11, 'elastic_tensor': [[237.0, 90.0, 51.0, 0.0, 0.0, 0.0], [90.0, 237.0, 51.0, 0.0, 0.0, 0.0], [51.0, 51.0, 212.0, 0.0, 0.0, 0.0], [0.0, 0.0, 0.0, 64.0, 0.0, 0.0], [0.0, 0.0, 0.0, 0.0, 64.0, 0.0], [0.0, 0.0, 0.0, 0.0, 0.0, 74.0]], 'homogeneous_poisson': 0.25, 'poisson_ratio': 0.25, 'universal_anisotropy': 0.11, 'elastic_tensor_original': [[238.45609785564406, 88.35765756247481, 50.84686354212951, 0.0, 0.0, 0.0], [89.21520592661271, 237.9178649247421, 50.74605774992059, 0.0, 0.0, 0.0], [52.107793545423526, 52.107791405495995, 211.91516968128985, 0.0, 0.0, 0.0], [0.0003006333044387966, 0.00015086634248633756, 0.00021508333596488853, 63.857301154140686, 0.0, 0.0], [-0.00010910347811919132, 2.9233372135188376e-06, -6.364008445084358e-05, 0.0, 63.66441126255797, 0.0], [-0.0027230779562018, -0.007858487754430814, -0.014169336191909852, 0.0, 0.0, 72.44548547621494]], 'compliance_tensor': [[5.1, -1.7, -0.8, -0.0, -0.0, 0.0], [-1.7, 5.1, -0.8, -0.0, -0.0, 0.0], [-0.8, -0.8, 5.1, 0.0, 0.0, -0.0], [0.0, -0.0, 0.0, 15.7, 0.0, -0.0], [0.0, -0.0, 0.0, 0.0, 15.7, -0.0], [0.0, 0.0, -0.0, -0.0, -0.0, 13.6]], 'warnings': [], 'nsites': 8}",0.0
297,mp-21467,TiCo2Sn,"{'Ti': 1.0, 'Co': 2.0, 'Sn': 1.0}",0.15573428796784594,8.37544948678618,"{'G_Reuss': 70.0, 'G_VRH': 74.0, 'G_Voigt': 77.0, 'G_Voigt_Reuss_Hill': 74.0, 'K_Reuss': 168.0, 'K_VRH': 168.0, 'K_Voigt': 168.0, 'K_Voigt_Reuss_Hill': 168.0, 'elastic_anisotropy': 0.51, 'elastic_tensor': [[235.0, 135.0, 135.0, 0.0, 0.0, 0.0], [135.0, 235.0, 135.0, 0.0, 0.0, 0.0], [135.0, 135.0, 235.0, 0.0, 0.0, 0.0], [0.0, 0.0, 0.0, 95.0, 0.0, 0.0], [0.0, 0.0, 0.0, 0.0, 95.0, 0.0], [0.0, 0.0, 0.0, 0.0, 0.0, 95.0]], 'homogeneous_poisson': 0.31, 'poisson_ratio': 0.31, 'universal_anisotropy': 0.51, 'elastic_tensor_original': [[237.87563238264048, 136.6727492790438, 136.6727492790438, 0.0, 0.0, 0.0], [133.59543159280113, 231.61917700399488, 133.59543159280113, 0.0, 0.0, 0.0], [134.04670939716468, 134.04670939716468, 235.50956266008993, 0.0, 0.0, 0.0], [-4.4716421587260074e-05, -1.054662265265015e-05, -2.4306435832890323e-05, 95.28220775653578, 0.0, 0.0], [-6.073029075153464e-05, -0.00014436019527642438, -0.00013950028246557982, 0.0, 95.28213093303656, 0.0], [-7.225028656947393e-05, 5.1410149678191605e-05, 8.315658169708654e-05, 0.0, 0.0, 95.28205306613621]], 'compliance_tensor': [[7.3, -2.7, -2.7, 0.0, -0.0, -0.0], [-2.7, 7.3, -2.7, -0.0, 0.0, -0.0], [-2.7, -2.7, 7.3, -0.0, -0.0, 0.0], [0.0, -0.0, -0.0, 10.5, 0.0, 0.0], [-0.0, 0.0, -0.0, 0.0, 10.5, -0.0], [-0.0, -0.0, 0.0, 0.0, -0.0, 10.5]], 'warnings': [], 'nsites': 4}",0.0
298,mp-22331,NdTiGe,"{'Nd': 1.0, 'Ti': 1.0, 'Ge': 1.0}",0.1948913689659114,6.484673049458673,,0.0
299,mp-22432,Ti4Cu2O,"{'Ti': 4.0, 'Cu': 2.0, 'O': 1.0}",0.24905930229340445,5.9260113771970095,,0.0