,mp_id,Formula,Composition,IPF,Density,Elastic_Tensor,E_above_Hull
96,mp-554278,TiO2,"{'Ti': 1.0, 'O': 2.0}",0.527473341861237,3.6159400033700795,"{'G_Reuss': 59.0, 'G_VRH': 61.0, 'G_Voigt': 63.0, 'G_Voigt_Reuss_Hill': 61.0, 'K_Reuss': 180.0, 'K_VRH': 181.0, 'K_Voigt': 181.0, 'K_Voigt_Reuss_Hill': 181.0, 'elastic_anisotropy': 0.35, 'elastic_tensor': [[270.0, 139.0, 135.0, 0.0, -10.0, 0.0], [139.0, 311.0, 117.0, 0.0, -15.0, 0.0], [135.0, 117.0, 270.0, 0.0, 12.0, 0.0], [0.0, 0.0, 0.0, 58.0, 0.0, -4.0], [-10.0, -15.0, 12.0, 0.0, 57.0, 0.0], [0.0, 0.0, 0.0, -4.0, 0.0, 46.0]], 'homogeneous_poisson': 0.35, 'poisson_ratio': 0.35, 'universal_anisotropy': 0.35, 'elastic_tensor_original': [[311.29013305594816, 144.38277039092392, 109.91491476471985, 5.44589590386976, 0.0, 0.0], [145.48536609118253, 275.65591188669356, 128.03656733923424, -2.269640153188858, 0.0, 0.0], [110.69618905134406, 127.25486819655335, 278.331474266622, 0.27898343853006075, 0.0, 0.0], [6.6146884410286955, -1.5308490216245672, -0.6740817766886781, 49.993946398021926, 0.0, 0.0], [0.005203759358992782, -0.0035520650118117604, -0.012750942093769313, -0.0010419118701697485, 54.67949312322789, 7.142783012676133], [0.005658145442794468, -0.020654577862929513, 0.022214645687343968, -0.0020428171511996905, 7.320763237533192, 49.193931956850115]], 'compliance_tensor': [[5.7, -1.7, -2.1, 0.0, 1.0, 0.0], [-1.7, 4.4, -1.1, 0.0, 1.1, 0.0], [-2.1, -1.1, 5.3, 0.0, -1.8, 0.0], [0.0, 0.0, 0.0, 17.3, 0.0, 1.7], [1.0, 1.1, -1.8, 0.0, 18.4, 0.0], [0.0, 0.0, 0.0, 1.7, 0.0, 22.1]], 'warnings': [], 'nsites': 12}",0.0
97,mp-567705,TiAl2,"{'Ti': 1.0, 'Al': 2.0}",0.10800150231519788,3.536390535036478,"{'G_Reuss': 81.0, 'G_VRH': 82.0, 'G_Voigt': 83.0, 'G_Voigt_Reuss_Hill': 82.0, 'K_Reuss': 109.0, 'K_VRH': 109.0, 'K_Voigt': 109.0, 'K_Voigt_Reuss_Hill': 109.0, 'elastic_anisotropy': 0.09, 'elastic_tensor': [[201.0, 67.0, 58.0, 0.0, 0.0, 0.0], [67.0, 201.0, 58.0, 0.0, 0.0, 0.0], [58.0, 58.0, 209.0, 0.0, 0.0, 0.0], [0.0, 0.0, 0.0, 87.0, 0.0, 0.0], [0.0, 0.0, 0.0, 0.0, 87.0, 0.0], [0.0, 0.0, 0.0, 0.0, 0.0, 97.0]], 'homogeneous_poisson': 0.2, 'poisson_ratio': 0.2, 'universal_anisotropy': 0.09, 'elastic_tensor_original': [[200.6443465662882, 67.00741457674403, 58.20952297547135, 0.0, 0.0, 0.0], [67.19608737316577, 200.85474584506724, 58.32633985805823, 0.0, 0.0, 0.0], [57.80200443483039, 57.80200443483039, 209.179145665826, 0.0, 0.0, 0.0], [-0.0003683518580939746, -0.00016757022533602628, -0.0005106217087715916, 87.10511961315291, 0.0, 0.0], [0.0007844276886169573, 0.01424820151515021, -0.0010267194892389687, 0.0, 87.14894986464168, 0.0], [-0.003438878347894158, -0.0031693184875316014, -0.0022811282611578288, 0.0, 0.0, 97.2847429921716]], 'compliance_tensor': [[5.9, -1.6, -1.2, 0.0, 0.0, 0.0], [-1.6, 5.9, -1.2, 0.0, -0.0, 0.0], [-1.2, -1.2, 5.4, -0.0, 0.0, 0.0], [0.0, 0.0, -0.0, 11.5, -0.0, 0.0], [0.0, -0.0, 0.0, -0.0, 11.5, 0.0], [0.0, 0.0, 0.0, 0.0, 0.0, 10.3]], 'warnings': [], 'nsites': 12}",0.0
98,mp-568,TiSb2,"{'Ti': 1.0, 'Sb': 2.0}",0.11247418630863018,7.376419290265216,"{'G_Reuss': 53.0, 'G_VRH': 54.0, 'G_Voigt': 55.0, 'G_Voigt_Reuss_Hill': 54.0, 'K_Reuss': 88.0, 'K_VRH': 89.0, 'K_Voigt': 89.0, 'K_Voigt_Reuss_Hill': 89.0, 'elastic_anisotropy': 0.25, 'elastic_tensor': [[133.0, 55.0, 55.0, 0.0, 0.0, 0.0], [55.0, 190.0, 36.0, 0.0, 0.0, 0.0], [55.0, 36.0, 190.0, 0.0, 0.0, 0.0], [0.0, 0.0, 0.0, 61.0, 0.0, 0.0], [0.0, 0.0, 0.0, 0.0, 46.0, 0.0], [0.0, 0.0, 0.0, 0.0, 0.0, 46.0]], 'homogeneous_poisson': 0.25, 'poisson_ratio': 0.25, 'universal_anisotropy': 0.25, 'elastic_tensor_original': [[189.5225308048913, 35.88038130450714, 54.713394585098, 0.0, 0.0, 0.0], [35.880109527529086, 189.5224749905051, 54.71353767829229, 0.0, 0.0, 0.0], [55.55928673915827, 55.55928673915827, 133.31536887263846, 0.0, 0.0, 0.0], [2.8183349328885196e-05, -6.675332849752446e-05, 6.758330910638457e-05, 46.067249310560975, 0.0, 0.0], [-5.9973279851488354e-05, -0.00010252672481563695, -8.661007828603637e-05, 0.0, 46.06709833390693, 0.0], [2.304332773974522e-05, 1.1116726409413615e-05, 8.859337135363808e-05, 0.0, 0.0, 61.20516375225796]], 'compliance_tensor': [[9.4, -2.3, -2.3, 0.0, 0.0, -0.0], [-2.3, 6.0, -0.5, -0.0, 0.0, -0.0], [-2.3, -0.5, 6.0, 0.0, -0.0, 0.0], [0.0, -0.0, 0.0, 16.3, -0.0, -0.0], [0.0, 0.0, -0.0, -0.0, 21.7, 0.0], [-0.0, -0.0, 0.0, -0.0, 0.0, 21.7]], 'warnings': [], 'nsites': 6}",0.0
99,mp-568151,Ti5Ge3,"{'Ti': 5.0, 'Ge': 3.0}",0.14320705849869722,5.822532784180686,,0.0
100,mp-568636,TiCr2,"{'Ti': 1.0, 'Cr': 2.0}",0.23601101145174302,6.234565438345089,"{'G_Reuss': 74.0, 'G_VRH': 75.0, 'G_Voigt': 75.0, 'G_Voigt_Reuss_Hill': 75.0, 'K_Reuss': 198.0, 'K_VRH': 198.0, 'K_Voigt': 198.0, 'K_Voigt_Reuss_Hill': 198.0, 'elastic_anisotropy': 0.06, 'elastic_tensor': [[307.0, 146.0, 142.0, 0.0, 0.0, 0.0], [146.0, 307.0, 142.0, 0.0, 0.0, 0.0], [142.0, 142.0, 307.0, 0.0, 0.0, 0.0], [0.0, 0.0, 0.0, 66.0, 0.0, 0.0], [0.0, 0.0, 0.0, 0.0, 66.0, 0.0], [0.0, 0.0, 0.0, 0.0, 0.0, 80.0]], 'homogeneous_poisson': 0.33, 'poisson_ratio': 0.33, 'universal_anisotropy': 0.06, 'elastic_tensor_original': [[309.180708645078, 146.8340938174054, 142.08013825384884, 0.0, 0.0, -1.1021765933167336e-05], [143.88329517383028, 305.9471872025249, 138.49581800126154, 0.0, 0.0, -3.635732747089628e-05], [142.8010602627497, 142.80110033841285, 306.5946999787543, 0.0, 0.0, -1.695825749301126e-05], [0.04567211123343481, 0.05361136782166942, 0.05421735832453903, 65.64806888675479, -7.793339800482612e-06, -6.666672198873081e-09], [0.004300951742437091, 0.003624309307107365, 0.0026957464630262555, 7.000003249960595e-07, 65.66641197848786, 0.0], [0.02033544550667426, 0.04452068720876801, 0.07106902645195423, 0.0, 0.0, 79.6677016623037]], 'compliance_tensor': [[4.7, -1.6, -1.4, 0.0, 0.0, 0.0], [-1.6, 4.7, -1.4, -0.0, -0.0, 0.0], [-1.4, -1.4, 4.6, 0.0, -0.0, -0.0], [0.0, -0.0, 0.0, 15.2, 0.0, 0.0], [0.0, 0.0, -0.0, 0.0, 15.2, -0.0], [0.0, 0.0, -0.0, 0.0, -0.0, 12.4]], 'warnings': [], 'nsites': 24}",0.0
101,mp-569708,TiPt3,"{'Ti': 1.0, 'Pt': 3.0}",0.1480823064801181,17.027464482463998,"{'G_Reuss': 105.0, 'G_VRH': 107.0, 'G_Voigt': 109.0, 'G_Voigt_Reuss_Hill': 107.0, 'K_Reuss': 234.0, 'K_VRH': 234.0, 'K_Voigt': 234.0, 'K_Voigt_Reuss_Hill': 234.0, 'elastic_anisotropy': 0.15, 'elastic_tensor': [[394.0, 162.0, 147.0, 11.0, 0.0, 0.0], [162.0, 394.0, 147.0, -11.0, 0.0, 0.0], [147.0, 147.0, 406.0, 0.0, 0.0, 0.0], [11.0, -11.0, 0.0, 91.0, 0.0, 0.0], [0.0, 0.0, 0.0, 0.0, 91.0, 11.0], [0.0, 0.0, 0.0, 0.0, 11.0, 116.0]], 'homogeneous_poisson': 0.3, 'poisson_ratio': 0.3, 'universal_anisotropy': 0.15, 'elastic_tensor_original': [[394.3907633749437, 161.38103325128796, 147.1367137133105, 10.77321905923282, 1.202980252605821e-07, 1.6440730118946223e-06], [161.9130077316467, 394.0416668284641, 146.92749401498432, -10.82140826055676, 1.119786919278587e-06, -4.067613376575197e-05], [147.70108718004954, 147.70113795600332, 405.6639542762157, 0.0, 0.0, -1.5238751091525893e-05], [11.36770191105993, -10.86049242863169, -0.45239787026807204, 90.76211133971674, -9.373335575313658e-06, 1.116666894973992e-06], [-0.035484256626952745, 0.013175649802819704, -0.0017984270947443081, -0.0013867403300811302, 90.88179871060494, 11.15136323428363], [-0.0078025383752534086, 0.023784233512178544, -0.03904915645158801, 0.016670727738173376, 11.226234248818612, 115.09412485000878]], 'compliance_tensor': [[3.3, -1.1, -0.8, -0.5, 0.0, -0.0], [-1.1, 3.3, -0.8, 0.5, 0.0, -0.0], [-0.8, -0.8, 3.1, 0.0, -0.0, 0.0], [-0.5, 0.5, 0.0, 11.1, -0.0, 0.0], [-0.0, 0.0, 0.0, -0.0, 11.1, -1.1], [-0.0, -0.0, 0.0, 0.0, -1.1, 8.7]], 'warnings': [], 'nsites': 28}",0.0
102,mp-569814,TiBr4,"{'Ti': 1.0, 'Br': 4.0}",0.059994409946712436,2.5958186567743655,,0.0
103,mp-570199,Ti3Pd5,"{'Ti': 3.0, 'Pd': 5.0}",0.16233867133346433,8.90461162906226,"{'G_Reuss': 32.0, 'G_VRH': 44.0, 'G_Voigt': 56.0, 'G_Voigt_Reuss_Hill': 44.0, 'K_Reuss': 162.0, 'K_VRH': 162.0, 'K_Voigt': 162.0, 'K_Voigt_Reuss_Hill': 162.0, 'elastic_anisotropy': 3.95, 'elastic_tensor': [[191.0, 170.0, 122.0, 0.0, 0.0, 0.0], [170.0, 191.0, 122.0, 0.0, 0.0, 0.0], [122.0, 122.0, 246.0, 0.0, 0.0, 0.0], [0.0, 0.0, 0.0, 59.0, 0.0, 0.0], [0.0, 0.0, 0.0, 0.0, 59.0, 0.0], [0.0, 0.0, 0.0, 0.0, 0.0, 93.0]], 'homogeneous_poisson': 0.38, 'poisson_ratio': 0.38, 'universal_anisotropy': 3.95, 'elastic_tensor_original': [[191.01891081827156, 170.48053648662412, 122.35272403627226, 0.0, 0.0, 0.0], [170.48064094990917, 191.01778373832335, 122.35327356984268, 0.0, 0.0, 0.0], [121.2224551958964, 121.2224551958964, 245.9690362740143, 0.0, 0.0, 0.0], [-0.014821200849086863, -0.032956987720172894, -0.08705765203927858, 58.962615764511234, 0.0, 0.0], [-0.010230763741424264, -0.010801176796689595, -0.02569866041304854, 0.0, 58.995156158806104, 0.0], [0.00011913309638186162, -1.0667173271919512e-06, 2.0920099174832984e-05, 0.0, 0.0, 93.05321697304274]], 'compliance_tensor': [[26.4, -22.3, -2.1, 0.0, 0.0, 0.0], [-22.3, 26.4, -2.1, -0.0, 0.0, -0.0], [-2.1, -2.1, 6.1, 0.0, 0.0, -0.0], [0.0, -0.0, 0.0, 17.0, 0.0, 0.0], [0.0, 0.0, 0.0, 0.0, 17.0, 0.0], [0.0, -0.0, -0.0, 0.0, 0.0, 10.7]], 'warnings': [], 'nsites': 8}",0.0
104,mp-571143,TiCl3,"{'Ti': 1.0, 'Cl': 3.0}",0.07604216235683961,2.2774261271317386,"{'G_Reuss': 1.0, 'G_VRH': 3.0, 'G_Voigt': 5.0, 'G_Voigt_Reuss_Hill': 3.0, 'K_Reuss': 2.0, 'K_VRH': 5.0, 'K_Voigt': 9.0, 'K_Voigt_Reuss_Hill': 5.0, 'elastic_anisotropy': 36.29, 'elastic_tensor': [[3.0, 1.0, 1.0, 0.0, 0.0, 0.0], [1.0, 3.0, 1.0, 0.0, 0.0, 0.0], [1.0, 1.0, 68.0, 0.0, 0.0, 0.0], [0.0, 0.0, 0.0, 0.0, 0.0, 0.0], [0.0, 0.0, 0.0, 0.0, 0.0, 0.0], [0.0, 0.0, 0.0, 0.0, 0.0, 1.0]], 'homogeneous_poisson': 0.28, 'poisson_ratio': 0.28, 'universal_anisotropy': 36.29, 'elastic_tensor_original': [[3.2350852964727395, 1.1225955070777298, 1.4931826239376635, 0.0, 0.0, 0.0], [0.9518729461798472, 2.6378061501518006, 0.9899051481462969, 0.0, 0.0, 0.0], [1.100615436183996, 1.100615176136751, 68.21430629683113, 0.0, 0.0, 0.0], [-0.05723088872719811, -0.16853999858287325, -0.13759243872853322, 0.571458143372969, 0.0, 0.0], [-0.12694576432705013, -0.15940567615029708, -0.9263116287560029, 0.0, 0.3105342562187676, 0.0], [-0.09295636015996148, -0.13035716060140873, -0.160458117382302, 0.0, 0.0, 0.45807456635400734]], 'compliance_tensor': [[482.3, -228.1, -4.4, 0.0, -0.0, -0.0], [-228.1, 482.3, -4.4, 0.0, -0.0, -0.0], [-4.4, -4.4, 14.8, 0.0, 0.0, 0.0], [0.0, -0.0, 0.0, 2267.6, -0.0, 0.0], [-0.0, -0.0, 0.0, -0.0, 2267.6, -0.0], [-0.0, -0.0, 0.0, 0.0, -0.0, 1420.8]], 'warnings': ['One or more K, G below 2 GPa'], 'nsites': 8}",0.0
105,mp-571342,TiGa2,"{'Ti': 1.0, 'Ga': 2.0}",0.13243924066780063,6.57508815436937,"{'G_Reuss': 69.0, 'G_VRH': 69.0, 'G_Voigt': 69.0, 'G_Voigt_Reuss_Hill': 69.0, 'K_Reuss': 107.0, 'K_VRH': 107.0, 'K_Voigt': 107.0, 'K_Voigt_Reuss_Hill': 107.0, 'elastic_anisotropy': 0.03, 'elastic_tensor': [[196.0, 71.0, 59.0, 0.0, 0.0, 0.0], [71.0, 196.0, 59.0, 0.0, 0.0, 0.0], [59.0, 59.0, 189.0, 0.0, 0.0, 0.0], [0.0, 0.0, 0.0, 68.0, 0.0, 0.0], [0.0, 0.0, 0.0, 0.0, 68.0, 0.0], [0.0, 0.0, 0.0, 0.0, 0.0, 79.0]], 'homogeneous_poisson': 0.23, 'poisson_ratio': 0.23, 'universal_anisotropy': 0.03, 'elastic_tensor_original': [[195.93261541243274, 70.88245089503329, 60.394763272449936, 0.0, 0.0, 0.0], [70.88063919051547, 195.93714834206156, 60.397208538678946, 0.0, 0.0, 0.0], [58.20172678102217, 58.20172678102217, 189.4580036414658, 0.0, 0.0, 0.0], [-0.0026210865676685297, 0.0002489114506508978, -0.001494217402890028, 67.6298922943437, 0.0, 0.0], [0.00011958032656224517, 0.00014663706711744281, 0.0007778821243162444, 0.0, 67.63799924981633, 0.0], [2.6698893201065714, -2.6698893201065745, 0.0, 0.0, 0.0, 79.0494400600824]], 'compliance_tensor': [[6.2, -1.8, -1.4, 0.0, 0.0, 0.0], [-1.8, 6.2, -1.4, -0.0, 0.0, -0.0], [-1.4, -1.4, 6.1, -0.0, -0.0, -0.0], [0.0, -0.0, -0.0, 14.8, 0.0, 0.0], [0.0, 0.0, -0.0, 0.0, 14.8, 0.0], [0.0, -0.0, -0.0, 0.0, 0.0, 12.7]], 'warnings': [], 'nsites': 12}",0.0
106,mp-592,TiRu,"{'Ti': 1.0, 'Ru': 1.0}",0.12927407530300686,8.419437219779311,"{'G_Reuss': 103.0, 'G_VRH': 107.0, 'G_Voigt': 110.0, 'G_Voigt_Reuss_Hill': 107.0, 'K_Reuss': 212.0, 'K_VRH': 212.0, 'K_Voigt': 212.0, 'K_Voigt_Reuss_Hill': 212.0, 'elastic_anisotropy': 0.35, 'elastic_tensor': [[408.0, 114.0, 114.0, 0.0, 0.0, 0.0], [114.0, 408.0, 114.0, 0.0, 0.0, 0.0], [114.0, 114.0, 408.0, 0.0, 0.0, 0.0], [0.0, 0.0, 0.0, 86.0, 0.0, 0.0], [0.0, 0.0, 0.0, 0.0, 86.0, 0.0], [0.0, 0.0, 0.0, 0.0, 0.0, 86.0]], 'homogeneous_poisson': 0.28, 'poisson_ratio': 0.28, 'universal_anisotropy': 0.35, 'elastic_tensor_original': [[407.5059056692544, 114.28240025140232, 114.28240025140232, 0.0, 0.0, 0.0], [114.28327622410836, 407.5060474594337, 114.28327622410836, 0.0, 0.0, 0.0], [114.28338769480789, 114.28338769480789, 407.5080488960018, 0.0, 0.0, 0.0], [4.44929563493118e-05, 1.7682816699193673e-05, 0.0003161430965739415, 86.26531344771007, 0.0, 0.0], [6.224659405727218e-05, -2.817286561361018e-05, 1.7616748044151594e-05, 0.0, 86.26517054161422, 0.0], [8.725961080372224e-05, 6.45348642269435e-06, -9.524356277905652e-05, 0.0, 0.0, 86.26541691114899]], 'compliance_tensor': [[2.8, -0.6, -0.6, 0.0, -0.0, 0.0], [-0.6, 2.8, -0.6, 0.0, -0.0, 0.0], [-0.6, -0.6, 2.8, -0.0, 0.0, -0.0], [0.0, 0.0, -0.0, 11.6, -0.0, 0.0], [-0.0, -0.0, 0.0, -0.0, 11.6, -0.0], [0.0, 0.0, -0.0, 0.0, -0.0, 11.6]], 'warnings': [], 'nsites': 2}",0.0
107,mp-604647,TiAs2,"{'Ti': 1.0, 'As': 2.0}",0.09510345440494032,6.24944293596729,,0.0
108,mp-608,TiCo3,"{'Ti': 1.0, 'Co': 3.0}",0.17657033375407374,7.9485403294031345,"{'G_Reuss': 75.0, 'G_VRH': 83.0, 'G_Voigt': 91.0, 'G_Voigt_Reuss_Hill': 83.0, 'K_Reuss': 194.0, 'K_VRH': 194.0, 'K_Voigt': 194.0, 'K_Voigt_Reuss_Hill': 194.0, 'elastic_anisotropy': 1.05, 'elastic_tensor': [[258.0, 162.0, 162.0, 0.0, 0.0, 0.0], [162.0, 258.0, 162.0, 0.0, 0.0, 0.0], [162.0, 162.0, 258.0, 0.0, 0.0, 0.0], [0.0, 0.0, 0.0, 119.0, 0.0, 0.0], [0.0, 0.0, 0.0, 0.0, 119.0, 0.0], [0.0, 0.0, 0.0, 0.0, 0.0, 119.0]], 'homogeneous_poisson': 0.31, 'poisson_ratio': 0.31, 'universal_anisotropy': 1.05, 'elastic_tensor_original': [[258.46388495670715, 162.05655975173664, 162.05655975173664, 0.0, 0.0, 0.0], [162.05725635634715, 258.46299721860197, 162.05725635634715, 0.0, 0.0, 0.0], [162.05508553756928, 162.05508553756928, 258.4617752544254, 0.0, 0.0, 0.0], [0.0012496104619634477, 0.0011293004174869376, 0.001101773740643759, 119.17765013826703, 0.0, 0.0], [-0.0006716869149777637, -0.000742536941171884, -0.0007263469351863268, 0.0, 119.17765417160182, 0.0], [-0.0003193467847242852, -0.0003672634691045569, -0.0004019901486097264, 0.0, 0.0, 119.1777155316245]], 'compliance_tensor': [[7.5, -2.9, -2.9, 0.0, 0.0, -0.0], [-2.9, 7.5, -2.9, -0.0, -0.0, 0.0], [-2.9, -2.9, 7.5, 0.0, -0.0, -0.0], [0.0, -0.0, 0.0, 8.4, 0.0, -0.0], [0.0, -0.0, -0.0, 0.0, 8.4, -0.0], [-0.0, 0.0, -0.0, -0.0, -0.0, 8.4]], 'warnings': [], 'nsites': 4}",0.0
109,mp-620032,Ti2Se,"{'Ti': 2.0, 'Se': 1.0}",0.19439221580794241,5.914803692563709,,0.0
110,mp-637255,Ti2Sn3,"{'Ti': 2.0, 'Sn': 3.0}",0.11630625457325387,7.060315921097217,"{'G_Reuss': 47.0, 'G_VRH': 48.0, 'G_Voigt': 48.0, 'G_Voigt_Reuss_Hill': 48.0, 'K_Reuss': 87.0, 'K_VRH': 87.0, 'K_Voigt': 87.0, 'K_Voigt_Reuss_Hill': 87.0, 'elastic_anisotropy': 0.12, 'elastic_tensor': [[167.0, 49.0, 51.0, -0.0, 0.0, 0.0], [49.0, 172.0, 54.0, -0.0, 0.0, 0.0], [51.0, 54.0, 140.0, -0.0, 0.0, 0.0], [-0.0, -0.0, -0.0, 42.0, 0.0, 0.0], [0.0, 0.0, 0.0, 0.0, 40.0, 0.0], [0.0, 0.0, 0.0, 0.0, 0.0, 51.0]], 'homogeneous_poisson': 0.27, 'poisson_ratio': 0.27, 'universal_anisotropy': 0.12, 'elastic_tensor_original': [[138.61019553108704, 53.69159236506377, 54.37174847964906, 0.15960608220843664, -1.7879538417305905, 0.12003588553134228], [54.07867047751421, 172.15118017890651, 49.12586825519316, -0.028267666884199804, -1.5377354603193447, -0.03631158787599797], [54.33424147506966, 48.910908178386634, 161.43001233553304, 0.09118620649024374, 8.65014714319331, -0.13408717146127425], [0.001471884226937003, 0.051986228526369666, 0.036990519281222926, 50.109528160882135, -0.007574871591648487, 2.4312790893641214], [-1.531437712099885, -1.4447175258072689, 8.420927794146573, -0.05967106576673147, 43.00421586992802, -0.023546968790685952], [-0.007084724058432866, -0.015040679485088552, -0.012142894091093401, 2.7037446938325544, 0.013829904200147292, 42.839285963866125]], 'compliance_tensor': [[7.0, -1.3, -2.0, -0.0, -0.0, -0.0], [-1.3, 6.9, -2.2, 0.0, 0.0, -0.0], [-2.0, -2.2, 8.7, 0.0, -0.0, 0.0], [-0.0, 0.0, 0.0, 23.8, -0.0, -0.0], [-0.0, 0.0, -0.0, -0.0, 25.1, 0.0], [-0.0, -0.0, 0.0, -0.0, 0.0, 19.6]], 'warnings': [], 'nsites': 20}",0.0
111,mp-640045,Ti8Bi9,"{'Ti': 8.0, 'Bi': 9.0}",0.15686294773020362,9.434745294940559,,0.0
112,mp-673657,Ti7S12,"{'Ti': 7.0, 'S': 12.0}",0.1480744731767077,3.3799236655945855,,0.0
113,mp-680260,Ti45Se16,"{'Ti': 45.0, 'Se': 16.0}",0.1844593938575648,5.622256871495733,,0.0
114,mp-7092,TiSi,"{'Ti': 1.0, 'Si': 1.0}",0.10876061772381987,4.224308672822326,"{'G_Reuss': 95.0, 'G_VRH': 99.0, 'G_Voigt': 102.0, 'G_Voigt_Reuss_Hill': 99.0, 'K_Reuss': 145.0, 'K_VRH': 146.0, 'K_Voigt': 146.0, 'K_Voigt_Reuss_Hill': 146.0, 'elastic_anisotropy': 0.37, 'elastic_tensor': [[308.0, 78.0, 71.0, 0.0, 0.0, 0.0], [78.0, 221.0, 110.0, 0.0, 0.0, 0.0], [71.0, 110.0, 273.0, 0.0, 0.0, 0.0], [0.0, 0.0, 0.0, 146.0, 0.0, 0.0], [0.0, 0.0, 0.0, 0.0, 91.0, 0.0], [0.0, 0.0, 0.0, 0.0, 0.0, 94.0]], 'homogeneous_poisson': 0.22, 'poisson_ratio': 0.22, 'universal_anisotropy': 0.37, 'elastic_tensor_original': [[272.8414952970048, 68.89530014320408, 110.70261994522421, 0.0, 0.0, 0.0], [72.5048077333678, 307.6471401563007, 76.88512984598886, 0.0, 0.0, 0.0], [109.60640447486576, 78.24490512588825, 220.53875351029703, 0.0, 0.0, 0.0], [-0.0001013298479563147, -0.00017790973304988622, -0.00012376981428547295, 93.8245367180051, 0.0, 0.0], [-6.273318961984808e-06, -4.236323629966973e-05, 6.959317393081973e-05, 0.0, 145.70001670757492, 0.0], [0.00015277299879814716, -3.073659936049341e-05, 0.00012865638494048836, 0.0, 0.0, 91.41236625171403]], 'compliance_tensor': [[3.6, -1.0, -0.5, -0.0, 0.0, 0.0], [-1.0, 6.0, -2.1, -0.0, 0.0, 0.0], [-0.5, -2.1, 4.7, 0.0, 0.0, 0.0], [-0.0, -0.0, 0.0, 6.9, 0.0, 0.0], [0.0, 0.0, 0.0, 0.0, 10.9, 0.0], [0.0, 0.0, 0.0, 0.0, 0.0, 10.7]], 'warnings': [], 'nsites': 8}",0.0