,mp_id,Formula,Composition,IPF,Density,Elastic_Tensor,E_above_Hull
182,mp-27849,TiBrN,"{'Ti': 1.0, 'Br': 1.0, 'N': 1.0}",0.10900276229467461,3.9395889679935796,"{'G_Reuss': 2.0, 'G_VRH': 18.0, 'G_Voigt': 33.0, 'G_Voigt_Reuss_Hill': 18.0, 'K_Reuss': 13.0, 'K_VRH': 33.0, 'K_Voigt': 52.0, 'K_Voigt_Reuss_Hill': 33.0, 'elastic_anisotropy': 82.32, 'elastic_tensor': [[167.0, 9.0, 48.0, 0.0, 0.0, 0.0], [9.0, 13.0, 8.0, 0.0, 0.0, 0.0], [48.0, 8.0, 162.0, 0.0, 0.0, 0.0], [0.0, 0.0, 0.0, 1.0, 0.0, 0.0], [0.0, 0.0, 0.0, 0.0, 72.0, 0.0], [0.0, 0.0, 0.0, 0.0, 0.0, 1.0]], 'homogeneous_poisson': 0.27, 'poisson_ratio': 0.27, 'universal_anisotropy': 82.32, 'elastic_tensor_original': [[162.24278798772366, 48.37966711824196, 12.966163986403593, 0.0, 0.0, 0.0], [47.90931006357776, 166.710974830947, 11.249334942651263, 0.0, 0.0, 0.0], [3.02295013245534, 5.978068121230453, 13.254075996775892, 0.0, 0.0, 0.0], [-0.10762367921675704, -0.15533721982047927, 0.021732892318533693, 0.7232479664090439, 0.0, 0.0], [0.10804686551853994, -0.14958856688684144, -0.05114933612167204, 0.0, 0.9977318450632391, 0.0], [0.00012215677420770682, 0.000245220518060012, -1.5497080556467635e-05, 0.0, 0.0, 72.1604336039949]], 'compliance_tensor': [[6.7, -3.2, -1.8, 0.0, 0.0, 0.0], [-3.2, 79.3, -2.9, 0.0, 0.0, 0.0], [-1.8, -2.9, 6.9, 0.0, 0.0, 0.0], [0.0, 0.0, 0.0, 1002.3, 0.0, 0.0], [0.0, 0.0, 0.0, 0.0, 13.9, 0.0], [0.0, 0.0, 0.0, 0.0, 0.0, 1382.7]], 'warnings': ['One or more K, G below 2 GPa'], 'nsites': 6}",0.0
183,mp-27919,Ti8C5,"{'Ti': 8.0, 'C': 5.0}",0.13129340929417405,4.541437896810737,"{'G_Reuss': 113.0, 'G_VRH': 115.0, 'G_Voigt': 117.0, 'G_Voigt_Reuss_Hill': 115.0, 'K_Reuss': 169.0, 'K_VRH': 170.0, 'K_Voigt': 171.0, 'K_Voigt_Reuss_Hill': 170.0, 'elastic_anisotropy': 0.16, 'elastic_tensor': [[361.0, 93.0, 82.0, 10.0, 0.0, 0.0], [93.0, 361.0, 82.0, -10.0, 0.0, 0.0], [82.0, 82.0, 302.0, 0.0, 0.0, 0.0], [10.0, -10.0, 0.0, 97.0, 0.0, 0.0], [0.0, 0.0, 0.0, 0.0, 97.0, 10.0], [0.0, 0.0, 0.0, 0.0, 10.0, 134.0]], 'homogeneous_poisson': 0.22, 'poisson_ratio': 0.22, 'universal_anisotropy': 0.16, 'elastic_tensor_original': [[361.80493850434266, 91.90226324904089, 81.45468107053837, -9.676588583894558, 0.0, 0.0], [91.75578492283194, 361.87529404395576, 81.46912534712611, 9.618329995840204, 0.0, 0.0], [81.7263910310928, 81.72639479066542, 302.1372231348927, 0.0, 0.0, 0.0], [-9.6250321402911, 9.66614260469836, 0.25526185080076796, 96.76776774186183, 0.0, 0.0], [-0.0022924762341819853, 0.0007189842431206868, -0.0033869776191395896, -0.0025100765095298276, 96.77852146144005, -9.56582962772648], [-0.008986025277737198, 0.0222779029455448, 0.014854833078664096, 0.006240074961092612, -9.638427291583303, 133.54082153170023]], 'compliance_tensor': [[3.1, -0.7, -0.7, -0.4, -0.0, 0.0], [-0.7, 3.1, -0.7, 0.4, 0.0, 0.0], [-0.7, -0.7, 3.7, -0.0, 0.0, -0.0], [-0.4, 0.4, -0.0, 10.4, 0.0, 0.0], [-0.0, 0.0, 0.0, 0.0, 10.4, -0.7], [0.0, 0.0, -0.0, 0.0, -0.7, 7.5]], 'warnings': [], 'nsites': 13}",0.0
184,mp-28232,MgTi2O5,"{'Mg': 1.0, 'Ti': 2.0, 'O': 5.0}",0.5317634545223553,3.5514942036147072,"{'G_Reuss': 70.0, 'G_VRH': 71.0, 'G_Voigt': 73.0, 'G_Voigt_Reuss_Hill': 71.0, 'K_Reuss': 160.0, 'K_VRH': 162.0, 'K_Voigt': 164.0, 'K_Voigt_Reuss_Hill': 162.0, 'elastic_anisotropy': 0.24, 'elastic_tensor': [[267.0, 86.0, 145.0, 0.0, 0.0, 0.0], [86.0, 242.0, 102.0, 0.0, 0.0, 0.0], [145.0, 102.0, 299.0, 0.0, 0.0, 0.0], [0.0, 0.0, 0.0, 82.0, 0.0, 0.0], [0.0, 0.0, 0.0, 0.0, 51.0, 0.0], [0.0, 0.0, 0.0, 0.0, 0.0, 73.0]], 'homogeneous_poisson': 0.31, 'poisson_ratio': 0.31, 'universal_anisotropy': 0.24, 'elastic_tensor_original': [[299.2842165936006, 145.52322630484815, 102.08139279739864, 0.0, 0.0, 0.0], [144.40432033414328, 266.89413255216334, 86.696518542417, 0.0, 0.0, 0.0], [102.3843699680707, 85.94729683711202, 242.30156981749994, 0.0, 0.0, 0.0], [-1.819000161637229e-05, 9.85066754210529e-05, 0.00026014002311632674, 73.00745426744459, 0.0, 0.0], [0.0025715868213856984, -0.006294861871567576, -0.002089889501354256, 0.0, 81.64654401719534, 0.0], [0.006088947949325101, -0.05372815014390043, -0.05669865402199299, 0.0, 0.0, 50.88929265101025]], 'compliance_tensor': [[5.3, -0.9, -2.2, 0.0, -0.0, 0.0], [-0.9, 5.0, -1.3, 0.0, -0.0, 0.0], [-2.2, -1.3, 4.8, 0.0, 0.0, 0.0], [0.0, 0.0, 0.0, 12.2, 0.0, 0.0], [-0.0, -0.0, 0.0, 0.0, 19.7, 0.0], [0.0, 0.0, 0.0, 0.0, 0.0, 13.7]], 'warnings': [], 'nsites': 16}",0.0
185,mp-29356,NaTi2O4,"{'Na': 1.0, 'Ti': 2.0, 'O': 4.0}",0.6010653622581049,4.03211265932668,"{'G_Reuss': 76.0, 'G_VRH': 77.0, 'G_Voigt': 79.0, 'G_Voigt_Reuss_Hill': 77.0, 'K_Reuss': 144.0, 'K_VRH': 144.0, 'K_Voigt': 144.0, 'K_Voigt_Reuss_Hill': 144.0, 'elastic_anisotropy': 0.19, 'elastic_tensor': [[239.0, 96.0, 71.0, 0.0, 0.0, 0.0], [96.0, 258.0, 81.0, 0.0, 0.0, 0.0], [71.0, 81.0, 307.0, 0.0, 0.0, 0.0], [0.0, 0.0, 0.0, 77.0, 0.0, 0.0], [0.0, 0.0, 0.0, 0.0, 64.0, 0.0], [0.0, 0.0, 0.0, 0.0, 0.0, 67.0]], 'homogeneous_poisson': 0.27, 'poisson_ratio': 0.27, 'universal_anisotropy': 0.19, 'elastic_tensor_original': [[306.96898714778206, 70.78689256901443, 81.22829727767495, 0.0, 0.0, 0.0], [70.68749664945805, 238.88634846823626, 95.58720499851172, 0.0, 0.0, 0.0], [80.86125208999333, 95.96554053676032, 257.9684590720712, 0.0, 0.0, 0.0], [-0.005960462202053777, 0.015255545636062438, 0.011973611090240279, 67.19237790378817, 0.0, 0.0], [0.006078351472968661, -0.008756393590561438, 0.012663736680194788, 0.0, 77.35020620270691, 0.0], [0.00023370018716821605, 0.0004524436956910895, 0.0002517835349848994, 0.0, 0.0, 63.70451108366674]], 'compliance_tensor': [[5.1, -1.7, -0.7, 0.0, 0.0, 0.0], [-1.7, 4.8, -0.9, 0.0, -0.0, 0.0], [-0.7, -0.9, 3.7, 0.0, 0.0, 0.0], [0.0, 0.0, 0.0, 12.9, 0.0, 0.0], [0.0, -0.0, 0.0, 0.0, 15.7, 0.0], [0.0, 0.0, 0.0, 0.0, 0.0, 14.9]], 'warnings': [], 'nsites': 28}",0.0
186,mp-29699,TiNb3O6,"{'Ti': 1.0, 'Nb': 3.0, 'O': 6.0}",0.4428766867312594,5.1976373575207235,,0.0
187,mp-30840,Ti2Pd3,"{'Ti': 2.0, 'Pd': 3.0}",0.16219827975864465,8.738526615651537,"{'G_Reuss': 37.0, 'G_VRH': 44.0, 'G_Voigt': 50.0, 'G_Voigt_Reuss_Hill': 44.0, 'K_Reuss': 157.0, 'K_VRH': 157.0, 'K_Voigt': 157.0, 'K_Voigt_Reuss_Hill': 157.0, 'elastic_anisotropy': 1.78, 'elastic_tensor': [[249.0, 117.0, 114.0, 0.0, 0.0, 0.0], [117.0, 242.0, 104.0, 0.0, 0.0, 0.0], [114.0, 104.0, 251.0, 0.0, 0.0, 0.0], [0.0, 0.0, 0.0, 54.0, 0.0, 0.0], [0.0, 0.0, 0.0, 0.0, 15.0, 0.0], [0.0, 0.0, 0.0, 0.0, 0.0, 45.0]], 'homogeneous_poisson': 0.37, 'poisson_ratio': 0.37, 'universal_anisotropy': 1.78, 'elastic_tensor_original': [[248.6058435555096, 116.74137990283728, 113.68435170232779, 0.0, 0.0, 0.0], [116.54601305711195, 241.70597552904948, 101.7765715584598, 0.0, 0.0, 0.0], [114.64625784913466, 105.30033632400202, 250.87010820273866, 0.0, 0.0, 0.0], [0.0026616964753288824, -0.001973192815286379, -0.0017786261261279182, 54.422300331301116, 0.0, 0.0], [0.08971113168556, 0.020292551271045667, 0.0025615194713161714, 0.0, 15.329882364237996, 0.0], [-0.006183834295317348, 0.04025140672169406, 0.02709808774046551, 0.0, 0.0, 45.11323254134554]], 'compliance_tensor': [[5.8, -2.0, -1.8, 0.0, 0.0, -0.0], [-2.0, 5.7, -1.4, 0.0, 0.0, 0.0], [-1.8, -1.4, 5.4, 0.0, 0.0, 0.0], [0.0, 0.0, 0.0, 18.4, 0.0, 0.0], [0.0, 0.0, 0.0, 0.0, 65.2, 0.0], [-0.0, 0.0, 0.0, 0.0, 0.0, 22.2]], 'warnings': [], 'nsites': 10}",0.0
188,mp-3337,Ti6Si7Ni16,"{'Ti': 6.0, 'Si': 7.0, 'Ni': 16.0}",0.13568589704815365,6.777751236429393,,0.0
189,mp-3747,Ti3AlC2,"{'Ti': 3.0, 'Al': 1.0, 'C': 2.0}",0.12080369580176986,4.20786317502239,"{'G_Reuss': 125.0, 'G_VRH': 126.0, 'G_Voigt': 126.0, 'G_Voigt_Reuss_Hill': 126.0, 'K_Reuss': 158.0, 'K_VRH': 159.0, 'K_Voigt': 159.0, 'K_Voigt_Reuss_Hill': 159.0, 'elastic_anisotropy': 0.05, 'elastic_tensor': [[354.0, 76.0, 69.0, 0.0, 0.0, 0.0], [76.0, 354.0, 69.0, 0.0, 0.0, 0.0], [69.0, 69.0, 296.0, 0.0, 0.0, 0.0], [0.0, 0.0, 0.0, 115.0, 0.0, 0.0], [0.0, 0.0, 0.0, 0.0, 115.0, 0.0], [0.0, 0.0, 0.0, 0.0, 0.0, 139.0]], 'homogeneous_poisson': 0.19, 'poisson_ratio': 0.19, 'universal_anisotropy': 0.05, 'elastic_tensor_original': [[355.13696328482735, 74.43186172572157, 68.82098844819106, 0.0, 0.0, 6.730046321333196e-06], [74.97178599951819, 354.9390615272957, 69.05723897916705, 0.0, 0.0, 6.653465146596423e-05], [69.3759446996049, 69.37591774237829, 296.09982208352994, 0.0, 0.0, 1.2998668155410174e-05], [-0.00013301669226090324, 8.739668348401608e-05, -4.323000831624718e-05, 114.50125540541259, 2.1453337461337248e-05, 0.0], [0.000207890189942941, 0.00010709335956514988, 0.00029667966456105885, 8.866646333565864e-07, 115.15374095822891, 0.0], [0.00912272318868279, 0.0010771520877877892, -0.00844615833224933, 0.0, 0.0, 138.11896912898337]], 'compliance_tensor': [[3.1, -0.5, -0.6, 0.0, -0.0, -0.0], [-0.5, 3.1, -0.6, 0.0, 0.0, -0.0], [-0.6, -0.6, 3.7, -0.0, 0.0, 0.0], [0.0, 0.0, -0.0, 8.7, -0.0, 0.0], [-0.0, -0.0, 0.0, -0.0, 8.7, -0.0], [-0.0, -0.0, 0.0, 0.0, -0.0, 7.2]], 'warnings': [], 'nsites': 12}",0.0
190,mp-3951,Ti2CuS4,"{'Ti': 2.0, 'Cu': 1.0, 'S': 4.0}",0.15055165699214537,3.8027999432787216,,0.0
191,mp-4019,CaTiO3,"{'Ca': 1.0, 'Ti': 1.0, 'O': 3.0}",0.5922932448248942,3.9404642801305276,"{'G_Reuss': 101.0, 'G_VRH': 101.0, 'G_Voigt': 102.0, 'G_Voigt_Reuss_Hill': 101.0, 'K_Reuss': 172.0, 'K_VRH': 172.0, 'K_Voigt': 172.0, 'K_Voigt_Reuss_Hill': 172.0, 'elastic_anisotropy': 0.04, 'elastic_tensor': [[298.0, 102.0, 119.0, 0.0, 0.0, 0.0], [102.0, 313.0, 101.0, 0.0, 0.0, 0.0], [119.0, 101.0, 291.0, 0.0, 0.0, 0.0], [0.0, 0.0, 0.0, 101.0, 0.0, 0.0], [0.0, 0.0, 0.0, 0.0, 101.0, 0.0], [0.0, 0.0, 0.0, 0.0, 0.0, 113.0]], 'homogeneous_poisson': 0.25, 'poisson_ratio': 0.25, 'universal_anisotropy': 0.04, 'elastic_tensor_original': [[290.9843129515146, 119.0544826831396, 101.56089613701067, 0.0, 0.0, 0.0], [119.08105960630672, 297.6336774320826, 101.41182645216495, 0.0, 0.0, 0.0], [100.87927657021602, 103.15141138610042, 313.40023361592154, 0.0, 0.0, 0.0], [0.008744145971397884, -0.009844185027177155, 0.02962663770875814, 112.92730057595583, 0.0, 0.0], [0.09141734511769438, -0.10060193335009229, 0.12756605063810872, 0.0, 100.90737511805459, 0.0], [0.0040370814998972465, -0.0026677198604826767, 0.0024339429139362146, 0.0, 0.0, 100.94419039124091]], 'compliance_tensor': [[4.244545549016513, -0.9286355335508577, -1.4137944584495452, 0.0, 0.0, -3.5662896670265304e-21], [-0.9286355335508577, 3.7978301124217984, -0.9411027212165414, 0.0, 0.0, 1.458501403156818e-20], [-1.4137944584495454, -0.9411027212165414, 4.342487885056726, 0.0, 0.0, -3.614168087507596e-21], [0.0, 0.0, 0.0, 9.910078414289043, 0.0, 0.0], [0.0, 0.0, 0.0, 0.0, 9.906464117689051, 0.0], [-3.56628966702653e-21, 1.458501403156818e-20, -3.614168087507596e-21, 0.0, 0.0, 8.855254618677368]], 'warnings': [], 'nsites': 20}",0.0
192,mp-458,Ti2O3,"{'Ti': 2.0, 'O': 3.0}",0.5745173562529665,4.523578267557585,"{'G_Reuss': 87.0, 'G_VRH': 87.0, 'G_Voigt': 87.0, 'G_Voigt_Reuss_Hill': 87.0, 'K_Reuss': 216.0, 'K_VRH': 216.0, 'K_Voigt': 216.0, 'K_Voigt_Reuss_Hill': 216.0, 'elastic_anisotropy': 0.04, 'elastic_tensor': [[334.0, 162.0, 160.0, -6.0, 0.0, 0.0], [162.0, 334.0, 160.0, 6.0, 0.0, 0.0], [160.0, 160.0, 310.0, 0.0, 0.0, 0.0], [-6.0, 6.0, 0.0, 93.0, 0.0, 0.0], [0.0, 0.0, 0.0, 0.0, 93.0, -6.0], [0.0, 0.0, 0.0, 0.0, -6.0, 86.0]], 'homogeneous_poisson': 0.32, 'poisson_ratio': 0.32, 'universal_anisotropy': 0.04, 'elastic_tensor_original': [[334.50726589724087, 161.7640026032529, 158.80763558490634, 5.995076638303261, 0.0, 0.0], [161.11095251056676, 334.0168008734742, 158.70957342373674, -5.802420831410959, 0.0, 0.0], [161.72639814411042, 161.72633092817173, 310.34433973024375, 0.0, 0.0, 0.0], [7.437052654626508, -5.423191610185599, -0.7989703763298597, 93.3603751802106, 0.0, 0.0], [0.0405146332439779, 0.0008984984423253488, 0.003378142025717779, 0.0013142262845637605, 93.10801798803914, 6.428703424395248], [0.02402653122218082, -0.02709927545444912, 0.014588483247704552, -0.05137798353612105, 5.714450891612619, 85.35617480302592]], 'compliance_tensor': [[4.4, -1.4, -1.6, 0.4, 0.0, -0.0], [-1.4, 4.4, -1.6, -0.4, -0.0, -0.0], [-1.6, -1.6, 4.8, -0.0, 0.0, 0.0], [0.4, -0.4, -0.0, 10.8, -0.0, -0.0], [0.0, -0.0, 0.0, -0.0, 10.8, 0.8], [-0.0, -0.0, 0.0, -0.0, 0.8, 11.7]], 'warnings': [], 'nsites': 10}",0.0
193,mp-504617,Ti3Co5B2,"{'Ti': 3.0, 'Co': 5.0, 'B': 2.0}",0.163897108094284,7.015880700921357,,0.0
194,mp-505081,Ti2NiP5,"{'Ti': 2.0, 'Ni': 1.0, 'P': 5.0}",0.08963689555752474,4.444982939678502,,0.0
195,mp-505798,Na4TiSe4,"{'Na': 4.0, 'Ti': 1.0, 'Se': 4.0}",0.1954784830837274,3.203227318094693,,0.0
196,mp-510083,Tb2Ti3Si4,"{'Tb': 2.0, 'Ti': 3.0, 'Si': 4.0}",0.1127999786450508,5.865884782924213,,0.0
197,mp-5229,SrTiO3,"{'Sr': 1.0, 'Ti': 1.0, 'O': 3.0}",0.6084334115282282,4.962107562390343,"{'G_Reuss': 110.0, 'G_VRH': 110.0, 'G_Voigt': 110.0, 'G_Voigt_Reuss_Hill': 110.0, 'K_Reuss': 173.0, 'K_VRH': 173.0, 'K_Voigt': 173.0, 'K_Voigt_Reuss_Hill': 173.0, 'elastic_anisotropy': 0.0, 'elastic_tensor': [[319.0, 100.0, 100.0, 0.0, 0.0, 0.0], [100.0, 319.0, 100.0, 0.0, 0.0, 0.0], [100.0, 100.0, 319.0, 0.0, 0.0, 0.0], [0.0, 0.0, 0.0, 110.0, 0.0, 0.0], [0.0, 0.0, 0.0, 0.0, 110.0, 0.0], [0.0, 0.0, 0.0, 0.0, 0.0, 110.0]], 'homogeneous_poisson': 0.24, 'poisson_ratio': 0.24, 'universal_anisotropy': 0.0, 'elastic_tensor_original': [[319.06679697844805, 99.56478985970786, 99.56478985970786, 0.0, 0.0, 0.0], [99.56555604443435, 319.0670198527186, 99.56555604443435, 0.0, 0.0, 0.0], [99.56199756941477, 99.56199756941477, 319.06413662652335, 0.0, 0.0, 0.0], [9.796004687762447e-05, 5.487169292464567e-05, 6.326669694255876e-05, 109.52967313393816, 0.0, 0.0], [5.168669140065159e-05, 5.816669450101851e-06, 4.4703354725581525e-05, 0.0, 109.52969839228356, 0.0], [-6.636669842573983e-05, -6.876003290466494e-05, -4.9785023824386296e-05, 0.0, 0.0, 109.52966444226733]], 'compliance_tensor': [[3.6804393624948717, -0.8753304813980102, -0.8753304813980088, 1.8974786491072844e-23, -1.6256643065099962e-23, 1.1128517034338033e-23], [-0.87533048139801, 3.680439362494875, -0.8753304813980093, 7.230976639015255e-24, 1.8974786491072888e-23, -1.2359102669777171e-23], [-0.875330481398009, -0.8753304813980093, 3.68043936249487, -1.6256643065099927e-23, 7.230976639015258e-24, 1.553244572885962e-23], [1.897478649107284e-23, 7.230976639015255e-24, -1.6256643065099927e-23, 9.129945529551058, -5.3539311355751415e-47, -1.4524584684289058e-47], [-1.625664306509996e-23, 1.8974786491072885e-23, 7.230976639015257e-24, -5.353931135575141e-47, 9.129945529551073, -5.236590310223074e-47], [1.1128517034338032e-23, -1.2359102669777173e-23, 1.553244572885962e-23, -1.4524584684289058e-47, -5.236590310223075e-47, 9.129945529551062]], 'warnings': [], 'nsites': 5}",0.882217999999213
198,mp-540598,Ti4Tl2O9,"{'Ti': 4.0, 'Tl': 2.0, 'O': 9.0}",0.4892684727803134,5.726729902762196,,0.0
199,mp-540640,Sr2Ti6O13,"{'Sr': 2.0, 'Ti': 6.0, 'O': 13.0}",0.5432406417860893,4.20796219380568,,0.0
200,mp-542915,TiAl3,"{'Ti': 1.0, 'Al': 3.0}",0.10152895992103267,3.3657054463344656,"{'G_Reuss': 85.0, 'G_VRH': 89.0, 'G_Voigt': 92.0, 'G_Voigt_Reuss_Hill': 89.0, 'K_Reuss': 107.0, 'K_VRH': 107.0, 'K_Voigt': 108.0, 'K_Voigt_Reuss_Hill': 107.0, 'elastic_anisotropy': 0.4, 'elastic_tensor': [[196.0, 87.0, 45.0, 0.0, 0.0, 0.0], [87.0, 196.0, 45.0, 0.0, 0.0, 0.0], [45.0, 45.0, 222.0, 0.0, 0.0, 0.0], [0.0, 0.0, 0.0, 93.0, 0.0, 0.0], [0.0, 0.0, 0.0, 0.0, 93.0, 0.0], [0.0, 0.0, 0.0, 0.0, 0.0, 129.0]], 'homogeneous_poisson': 0.18, 'poisson_ratio': 0.18, 'universal_anisotropy': 0.4, 'elastic_tensor_original': [[195.7299300844029, 86.72236684186687, 45.33458978403537, 0.0, 0.0, 0.0], [86.7885042955386, 195.80449908779184, 45.41961668086746, 0.0, 0.0, 0.0], [45.20199231892706, 45.20199231892706, 221.5807019050528, 0.0, 0.0, 0.0], [0.000571854705300504, 0.0005929012665501917, 0.0005468480007131116, 92.85920206245562, 0.0, 0.0], [-0.0006216040705092777, -0.0007136738152555707, -0.000708480528269782, 0.0, 92.8592644392372, 0.0], [0.001357288071382436, 0.0014204045763198004, 0.0015520308520036263, 0.0, 0.0, 128.6189296770406]], 'compliance_tensor': [[6.5, -2.7, -0.8, -0.0, 0.0, 0.0], [-2.7, 6.5, -0.8, 0.0, 0.0, 0.0], [-0.8, -0.8, 4.8, -0.0, 0.0, 0.0], [-0.0, 0.0, -0.0, 10.8, 0.0, 0.0], [0.0, 0.0, 0.0, 0.0, 10.8, 0.0], [0.0, 0.0, 0.0, 0.0, 0.0, 7.8]], 'warnings': [], 'nsites': 4}",0.0
201,mp-5455,K6Ti2O7,"{'K': 6.0, 'Ti': 2.0, 'O': 7.0}",0.5087631760566842,2.456961865815393,,0.0
202,mp-554098,Ti6O,"{'Ti': 6.0, 'O': 1.0}",0.22226160628557337,4.681232021036337,,0.0
203,mp-5659,Ti3SiC2,"{'Ti': 3.0, 'Si': 1.0, 'C': 2.0}",0.11908903331575288,4.4749080984814436,"{'G_Reuss': 138.0, 'G_VRH': 139.0, 'G_Voigt': 139.0, 'G_Voigt_Reuss_Hill': 139.0, 'K_Reuss': 184.0, 'K_VRH': 184.0, 'K_Voigt': 184.0, 'K_Voigt_Reuss_Hill': 184.0, 'elastic_anisotropy': 0.02, 'elastic_tensor': [[362.0, 90.0, 101.0, 0.0, 0.0, 0.0], [90.0, 362.0, 101.0, 0.0, 0.0, 0.0], [101.0, 101.0, 350.0, 0.0, 0.0, 0.0], [0.0, 0.0, 0.0, 149.0, 0.0, 0.0], [0.0, 0.0, 0.0, 0.0, 149.0, 0.0], [0.0, 0.0, 0.0, 0.0, 0.0, 136.0]], 'homogeneous_poisson': 0.2, 'poisson_ratio': 0.2, 'universal_anisotropy': 0.02, 'elastic_tensor_original': [[361.9945167968505, 89.3096846062892, 101.00652702523148, 0.0, 0.0, 1.1754643366635747e-05], [89.4736541661236, 362.2613495497261, 101.48619626127028, 0.0, 0.0, 0.0], [100.70741145500061, 100.70734282081443, 349.634473573582, 0.0, 0.0, 0.0], [4.952657484076188e-05, 9.018022959585975e-05, -6.555309381459256e-05, 149.02723750646427, 0.0, 0.0], [-9.564980018976836e-05, -7.351984642112866e-05, 7.639984043705888e-06, -1.133330965878895e-07, 149.21106667115106, 0.0], [0.025698560510166304, 0.061262807200611225, 0.029523184611795834, 0.0, 0.0, 135.52442816244903]], 'compliance_tensor': [[3.1, -0.6, -0.7, 0.0, 0.0, 0.0], [-0.6, 3.1, -0.7, -0.0, -0.0, 0.0], [-0.7, -0.7, 3.3, 0.0, -0.0, -0.0], [-0.0, -0.0, 0.0, 6.7, 0.0, 0.0], [0.0, -0.0, -0.0, 0.0, 6.7, 0.0], [0.0, 0.0, -0.0, -0.0, 0.0, 7.4]], 'warnings': [], 'nsites': 12}",0.0
204,mp-567889,TiGe2,"{'Ti': 1.0, 'Ge': 2.0}",0.13103062258540607,6.553899769932891,"{'G_Reuss': 81.0, 'G_VRH': 83.0, 'G_Voigt': 86.0, 'G_Voigt_Reuss_Hill': 83.0, 'K_Reuss': 109.0, 'K_VRH': 112.0, 'K_Voigt': 114.0, 'K_Voigt_Reuss_Hill': 112.0, 'elastic_anisotropy': 0.34, 'elastic_tensor': [[227.0, 33.0, 26.0, 0.0, 0.0, 0.0], [33.0, 310.0, 78.0, 0.0, 0.0, 0.0], [26.0, 78.0, 216.0, 0.0, 0.0, 0.0], [0.0, 0.0, 0.0, 82.0, 0.0, 0.0], [0.0, 0.0, 0.0, 0.0, 82.0, 0.0], [0.0, 0.0, 0.0, 0.0, 0.0, 58.0]], 'homogeneous_poisson': 0.2, 'poisson_ratio': 0.2, 'universal_anisotropy': 0.34, 'elastic_tensor_original': [[216.07083978824582, 24.93134134801108, 78.13344154816733, 0.0, 0.0, 0.0], [26.299162095413962, 227.400302485835, 33.27819063865547, 0.0, 0.0, 0.0], [77.79606711812957, 32.505972166656875, 310.051373282113, 0.0, 0.0, 0.0], [6.409329928368132e-05, 3.702331366432463e-05, -3.3929981974374807e-05, 58.21606668865856, 0.0, 0.0], [2.537334169856097e-05, 2.7683342460190125e-05, 4.100334685047803e-05, 0.0, 82.11472326934046, 0.0], [0.0, 0.0, 0.0, 0.0, 0.0, 82.08875457151844]], 'compliance_tensor': [[4.5, -0.4, -0.4, 0.0, 0.0, 0.0], [-0.4, 3.6, -1.2, 0.0, 0.0, 0.0], [-0.4, -1.2, 5.1, 0.0, 0.0, 0.0], [0.0, 0.0, 0.0, 12.2, 0.0, 0.0], [0.0, 0.0, 0.0, 0.0, 12.2, 0.0], [0.0, 0.0, 0.0, 0.0, 0.0, 17.2]], 'warnings': [], 'nsites': 6}",0.0