,mp_id,Formula,Composition,IPF,Density,Elastic_Tensor,E_above_Hull
683,mp-570713,TiAlPt,"{'Ti': 1.0, 'Al': 1.0, 'Pt': 1.0}",0.13057906194024474,9.656845071143279,"{'G_Reuss': 42.0, 'G_VRH': 49.0, 'G_Voigt': 57.0, 'G_Voigt_Reuss_Hill': 49.0, 'K_Reuss': 159.0, 'K_VRH': 162.0, 'K_Voigt': 164.0, 'K_Voigt_Reuss_Hill': 162.0, 'elastic_anisotropy': 1.82, 'elastic_tensor': [[290.0, 133.0, 102.0, 0.0, 0.0, 0.0], [133.0, 290.0, 102.0, 0.0, 0.0, 0.0], [102.0, 102.0, 222.0, 0.0, 0.0, 0.0], [0.0, 0.0, 0.0, 25.0, 0.0, 0.0], [0.0, 0.0, 0.0, 0.0, 25.0, 0.0], [0.0, 0.0, 0.0, 0.0, 0.0, 79.0]], 'homogeneous_poisson': 0.36, 'poisson_ratio': 0.36, 'universal_anisotropy': 1.82, 'elastic_tensor_original': [[290.10448911474765, 132.18349674372936, 100.89261799360051, 0.0, 0.0, -2.070121577539899e-05], [132.15756046542376, 290.928142193396, 101.73969651942441, 0.0, 0.0, 0.0], [102.57311594531315, 102.57310516585278, 221.93098680728994, 0.0, 0.0, 0.0], [-0.00013003629836819182, 0.00011781991923204909, -6.927622749699319e-05, 24.595965771853184, 0.0, 0.0], [-0.00019279635261480887, -5.4399911385898715e-05, -6.641655847860217e-05, -3.9999934842840054e-08, 24.760231723941498, 0.0], [-0.1229459488276053, -0.11549963833903835, -0.08415534856572887, 0.0, 0.0, 78.3266865922952]], 'compliance_tensor': [[4.7, -1.7, -1.4, -0.0, 0.0, 0.0], [-1.7, 4.7, -1.4, 0.0, -0.0, 0.0], [-1.4, -1.4, 5.8, -0.0, -0.0, -0.0], [-0.0, 0.0, -0.0, 40.5, 0.0, 0.0], [0.0, -0.0, -0.0, 0.0, 40.5, 0.0], [0.0, 0.0, -0.0, 0.0, 0.0, 12.7]], 'warnings': [], 'nsites': 6}",0.0
684,mp-5777,BaTiO3,"{'Ba': 1.0, 'Ti': 1.0, 'O': 3.0}",0.6135196578914586,5.713375485281336,"{'G_Reuss': 38.0, 'G_VRH': 55.0, 'G_Voigt': 72.0, 'G_Voigt_Reuss_Hill': 55.0, 'K_Reuss': 88.0, 'K_VRH': 97.0, 'K_Voigt': 107.0, 'K_Voigt_Reuss_Hill': 97.0, 'elastic_anisotropy': 4.7, 'elastic_tensor': [[208.0, -6.0, 89.0, 0.0, 0.0, 0.0], [-6.0, 161.0, 85.0, 0.0, 0.0, 0.0], [89.0, 85.0, 257.0, 0.0, 0.0, 0.0], [0.0, 0.0, 0.0, 88.0, 0.0, 0.0], [0.0, 0.0, 0.0, 0.0, 108.0, 0.0], [0.0, 0.0, 0.0, 0.0, 0.0, 13.0]], 'homogeneous_poisson': 0.26, 'poisson_ratio': 0.26, 'universal_anisotropy': 4.7, 'elastic_tensor_original': [[257.0076083650676, 89.42119380341845, 85.08062903707169, 0.0, 0.0, 0.0], [89.24977396738484, 208.0283609674658, -6.334885882123646, 0.0, 0.0, 0.0], [85.2340247697582, -5.909883427524095, 160.6025365950181, 0.0, 0.0, 0.0], [0.00015900999296165335, 0.0002569766010137377, 0.00025593334930831585, 12.738567759927008, 0.0, 0.0], [0.00043575309273306053, 0.0005490697571827924, 0.0005713727591924039, 0.0, 87.88354846024704, 0.0], [-0.00015557881194101677, 0.0007272821967626056, 0.00041237875968422945, 0.0, 0.0, 108.44769822005533]], 'compliance_tensor': [[6.0, 1.6, -2.6, 0.0, 0.0, 0.0], [1.6, 8.0, -3.2, 0.0, 0.0, 0.0], [-2.6, -3.2, 5.9, 0.0, 0.0, 0.0], [0.0, 0.0, 0.0, 11.4, 0.0, 0.0], [0.0, 0.0, 0.0, 0.0, 9.2, 0.0], [0.0, 0.0, 0.0, 0.0, 0.0, 78.5]], 'warnings': [], 'nsites': 5}",0.473180000000184
685,mp-6074,KRb2TiF6,"{'K': 1.0, 'Rb': 2.0, 'Ti': 1.0, 'F': 6.0}",0.3412393680919779,3.2708715815482146,"{'G_Reuss': 52.0, 'G_VRH': 63.0, 'G_Voigt': 73.0, 'G_Voigt_Reuss_Hill': 63.0, 'K_Reuss': 30.0, 'K_VRH': 30.0, 'K_Voigt': 30.0, 'K_Voigt_Reuss_Hill': 30.0, 'elastic_anisotropy': 1.98, 'elastic_tensor': [[198.0, -54.0, -54.0, 0.0, 0.0, 0.0], [-54.0, 198.0, -54.0, 0.0, 0.0, 0.0], [-54.0, -54.0, 198.0, 0.0, 0.0, 0.0], [0.0, 0.0, 0.0, 38.0, 0.0, 0.0], [0.0, 0.0, 0.0, 0.0, 38.0, 0.0], [0.0, 0.0, 0.0, 0.0, 0.0, 38.0]], 'homogeneous_poisson': -0.11, 'poisson_ratio': -0.11, 'universal_anisotropy': 1.98, 'elastic_tensor_original': [[198.35225715697533, -54.073780244443945, -54.073780244443945, 0.0, 0.0, 0.0], [-54.073780244443945, 198.35225715697533, -54.073780244443945, 0.0, 0.0, 0.0], [-54.073780244443945, -54.073780244443945, 198.35225715697533, 0.0, 0.0, 0.0], [0.0, 0.0, 0.0, 37.61964413071564, 0.0, 0.0], [0.0, 0.0, 0.0, 0.0, 37.61964413071564, 0.0], [0.0, 0.0, 0.0, 0.0, 0.0, 37.61964413071564]], 'compliance_tensor': [[6.336336730298805, 2.3747802668910545, 2.374780266891054, 2.1892506302640244e-16, 1.0141568174490657e-15, -4.300257559874486e-16], [2.374780266891054, 6.3363367302988065, 2.374780266891055, 1.0141568174490659e-15, 2.1892506302640244e-16, 4.3002575598744873e-16], [2.374780266891054, 2.3747802668910545, 6.336336730298806, 1.0141568174490657e-15, 1.0141568174490657e-15, 7.748066740647233e-32], [2.1892506302640239e-16, 1.0141568174490657e-15, 1.0141568174490657e-15, 26.58185698209519, 9.208160642288507e-32, 1.2252575104101132e-15], [1.0141568174490655e-15, 2.1892506302640234e-16, 1.0141568174490657e-15, 9.208160642288506e-32, 26.58185698209519, 1.225257510410113e-15], [-4.300257559874486e-16, 4.3002575598744883e-16, 1.285015660336026e-31, 1.2252575104101132e-15, 1.225257510410113e-15, 26.58185698209519]], 'warnings': [], 'nsites': 10}",0.0
686,mp-6138,Na2TiSiO5,"{'Na': 2.0, 'Ti': 1.0, 'Si': 1.0, 'O': 5.0}",0.5268485690697258,3.0343469703060166,,0.0
687,mp-6332,Li2TiSiO5,"{'Li': 2.0, 'Ti': 1.0, 'Si': 1.0, 'O': 5.0}",0.544056857768388,2.993752526947833,,0.0
688,mp-6390,Rb3Ti3(PO4)5,"{'Rb': 3.0, 'Ti': 3.0, 'P': 5.0, 'O': 20.0}",0.5292863874781589,3.2538070535187487,,0.0
689,mp-644483,Ti3SnH,"{'Ti': 3.0, 'Sn': 1.0, 'H': 1.0}",0.13932322134949449,5.997228901136887,"{'G_Reuss': -1.0, 'G_VRH': 25.0, 'G_Voigt': 52.0, 'G_Voigt_Reuss_Hill': 25.0, 'K_Reuss': 125.0, 'K_VRH': 125.0, 'K_Voigt': 125.0, 'K_Voigt_Reuss_Hill': 125.0, 'elastic_anisotropy': -242.25, 'elastic_tensor': [[124.0, 125.0, 125.0, 0.0, 0.0, 0.0], [125.0, 124.0, 125.0, 0.0, 0.0, 0.0], [125.0, 125.0, 124.0, 0.0, 0.0, 0.0], [0.0, 0.0, 0.0, 87.0, 0.0, 0.0], [0.0, 0.0, 0.0, 0.0, 87.0, 0.0], [0.0, 0.0, 0.0, 0.0, 0.0, 87.0]], 'homogeneous_poisson': 0.4, 'poisson_ratio': 0.4, 'universal_anisotropy': -242.25, 'elastic_tensor_original': [[124.47567667101286, 125.34474921341521, 125.34474921341521, 0.0, 0.0, 0.0], [125.3430456306332, 124.47472494653891, 125.3430456306332, 0.0, 0.0, 0.0], [125.34741194709675, 125.34741194709675, 124.47792756691437, 0.0, 0.0, 0.0], [0.0011337338952953464, 0.0010552708942073445, 0.0010345175369642463, 86.85121058589661, 0.0, 0.0], [-0.02828094749902634, -0.011443533303234322, -0.03037010800736089, 0.0, 86.84196828653194, 0.0], [0.0012449127439662544, 0.0015109853706269595, 0.0010788764306328585, 0.0, 0.0, 86.82919709707217]], 'compliance_tensor': [[-766.3, 384.5, 384.5, 0.0, -0.0, 0.0], [384.5, -766.3, 384.5, 0.0, 0.0, -0.0], [384.5, 384.5, -766.3, -0.0, 0.0, 0.0], [0.0, 0.0, -0.0, 11.5, 0.0, 0.0], [-0.0, 0.0, 0.0, 0.0, 11.5, 0.0], [0.0, -0.0, 0.0, 0.0, 0.0, 11.5]], 'warnings': ['Elastic tensor has a negative eigenvalue', 'c11 and c12 are within 5% or c12 is greater than c11', 'c11 and c13 are within 5% or c13 is greater than c11', 'c11 and c23 are within 5% or c23 is greater than c11', 'One or more K, G below 2 GPa'], 'nsites': 5}",0.0
690,mp-676818,Sr8(TiS3)7,"{'Sr': 8.0, 'Ti': 7.0, 'S': 21.0}",0.18911056288667646,3.4602513067426584,,0.0
691,mp-680312,La6Ti3Se9O5,"{'La': 6.0, 'Ti': 3.0, 'Se': 9.0, 'O': 5.0}",0.2628407030752094,5.964740843917644,,0.0
692,mp-752579,Tm2TiO5,"{'Tm': 2.0, 'Ti': 1.0, 'O': 5.0}",0.5239654491109096,7.3035094313098945,,0.0
693,mp-760024,NaTi5O10,"{'Na': 1.0, 'Ti': 5.0, 'O': 10.0}",0.5539283277377267,3.761646572987842,,0.0
694,mp-760414,Ti3PdO,"{'Ti': 3.0, 'Pd': 1.0, 'O': 1.0}",0.26935090255826144,6.369330991445486,"{'G_Reuss': 38.0, 'G_VRH': 42.0, 'G_Voigt': 46.0, 'G_Voigt_Reuss_Hill': 42.0, 'K_Reuss': 166.0, 'K_VRH': 167.0, 'K_Voigt': 168.0, 'K_Voigt_Reuss_Hill': 167.0, 'elastic_anisotropy': 0.98, 'elastic_tensor': [[230.0, 150.0, 140.0, 0.0, 0.0, 0.0], [150.0, 230.0, 140.0, 0.0, 0.0, 0.0], [140.0, 140.0, 194.0, 0.0, 0.0, 0.0], [0.0, 0.0, 0.0, 30.0, 0.0, 0.0], [0.0, 0.0, 0.0, 0.0, 30.0, 0.0], [0.0, 0.0, 0.0, 0.0, 0.0, 92.0]], 'homogeneous_poisson': 0.38, 'poisson_ratio': 0.38, 'universal_anisotropy': 0.98, 'elastic_tensor_original': [[229.75811629203767, 149.64551904314342, 134.60358824430642, -2.520001775642267e-05, 3.920002762110192e-05, 5.403912407701792], [149.64551904314342, 229.75811629203767, 134.60358824430716, -4.1322887311904136e-05, 2.7093918900187376e-05, -5.403917607705456], [145.63624121206948, 145.63624121206948, 194.48317410319578, -2.5599396105148312e-05, 2.5599396105148312e-05, -0.00017359590483803696], [0.0, 0.0, -1.0696186899719102e-05, 30.300074157184522, -0.21963266384891417, 0.0], [0.0, 0.0, 1.0542238461965387e-05, 0.21963266384891414, 30.300074157184522, 0.0], [1.1207767707512613, -1.120776770751261, 0.0, 1.6745440390206896e-05, -1.6307023349307034e-05, 92.48784628494005]], 'compliance_tensor': [[9.058143324754331, -3.4242880965475324, -4.059041702746206, -1.4225650654058496e-06, -3.174591244519714e-06, -2.431529872092344e-16], [-3.42428809654753, 9.058143324755655, -4.059041702746382, 4.360724516916421e-06, 1.2001041074931084e-06, 2.3977136389977895e-16], [-4.05904170274621, -4.059041702746379, 10.990694513244055, 3.851888993573531e-06, -4.360724517046986e-06, -1.0134271269033783e-12], [-1.4225650654058526e-06, 4.360724516916421e-06, 3.851888993573533e-06, 33.003219556905655, -5.148657366675616e-13, -1.8946716798037427e-06], [-3.174591244519712e-06, 1.2001041074931078e-06, -4.360724517046986e-06, -5.148657366841272e-13, 33.00321955690406, 5.783289582224723e-06], [-2.377162354528927e-16, 2.377161790754805e-16, -1.0134295633176567e-12, -1.8946716798037416e-06, 5.783289582224723e-06, 10.812231440926185]], 'warnings': [], 'nsites': 10}",0.0
695,mp-768110,Li2Ti3CoO8,"{'Li': 2.0, 'Ti': 3.0, 'Co': 1.0, 'O': 8.0}",0.5500140195203114,3.798857892205534,,0.0
696,mp-768309,Ce2TiO5,"{'Ce': 2.0, 'Ti': 1.0, 'O': 5.0}",0.46021967006370595,5.6666198329135735,,0.0
697,mp-770408,Rb6Ti2O7,"{'Rb': 6.0, 'Ti': 2.0, 'O': 7.0}",0.5369206228107112,3.593044097654674,,0.0
698,mp-775161,Li2Ti3VO8,"{'Li': 2.0, 'Ti': 3.0, 'V': 1.0, 'O': 8.0}",0.5417229649850198,3.6517383926966476,,0.0
699,mp-775326,Li2Ti3NiO8,"{'Li': 2.0, 'Ti': 3.0, 'Ni': 1.0, 'O': 8.0}",0.553171454647119,3.8273671774607694,,0.0
700,mp-775865,Li2Ti3MnO8,"{'Li': 2.0, 'Ti': 3.0, 'Mn': 1.0, 'O': 8.0}",0.529391862070487,3.647417053655144,,0.0
701,mp-779763,Tb2Ti2O7,"{'Tb': 2.0, 'Ti': 2.0, 'O': 7.0}",0.5389679149169415,6.555812439685669,,0.0
702,mp-8065,K2Ti6O13,"{'K': 2.0, 'Ti': 6.0, 'O': 13.0}",0.5598114245459468,3.4639630544736315,,0.0
703,mp-8132,Li(TiSe2)3,"{'Li': 1.0, 'Ti': 3.0, 'Se': 6.0}",0.14753981070427305,4.1374015196762235,"{'G_Reuss': 7.0, 'G_VRH': 14.0, 'G_Voigt': 22.0, 'G_Voigt_Reuss_Hill': 14.0, 'K_Reuss': 11.0, 'K_VRH': 22.0, 'K_Voigt': 32.0, 'K_Voigt_Reuss_Hill': 22.0, 'elastic_anisotropy': 12.94, 'elastic_tensor': [[104.0, 25.0, 6.0, 0.0, 0.0, 0.0], [25.0, 104.0, 6.0, -0.0, 0.0, 0.0], [6.0, 6.0, 12.0, 0.0, 0.0, 0.0], [0.0, -0.0, 0.0, 4.0, 0.0, 0.0], [0.0, 0.0, 0.0, 0.0, 4.0, 0.0], [0.0, 0.0, 0.0, 0.0, 0.0, 40.0]], 'homogeneous_poisson': 0.23, 'poisson_ratio': 0.23, 'universal_anisotropy': 12.94, 'elastic_tensor_original': [[103.48037199150464, 24.69623150739047, 8.414871384786881, 0.11477554594300125, 0.0, 0.0], [24.837231289902014, 103.51316691010294, 7.462974066207745, -0.4068097207971869, 0.0, 0.0], [3.430166917601573, 3.4301644367196, 12.041904763801766, 0.0, 0.0, 0.0], [-0.2716079810776996, 0.9000769059480098, 0.6975266797802665, 3.4865816985564444, 0.0, 0.0], [-0.0521680457029962, -0.04915970602875231, -0.16553624121542626, -0.030098545632693926, 3.5873197139293413, -0.5441136704408321], [0.014958075635263609, 0.04519046627361495, 0.056483833284895556, 0.0400057404654072, -0.44465965326340584, 39.6417106603439]], 'compliance_tensor': [[10.4, -2.3, -3.8, -1.2, -0.0, -0.0], [-2.3, 10.4, -3.8, 1.2, 0.0, -0.0], [-3.8, -3.8, 86.7, 0.0, 0.0, 0.0], [-1.2, 1.2, 0.0, 282.9, -0.0, 0.0], [-0.0, 0.0, 0.0, -0.0, 282.9, -2.4], [-0.0, -0.0, 0.0, 0.0, -2.4, 25.3]], 'warnings': [], 'nsites': 10}",0.0
704,mp-861656,Ti2CrIr,"{'Ti': 2.0, 'Cr': 1.0, 'Ir': 1.0}",0.18206278900975875,9.760395641571574,"{'G_Reuss': 78.0, 'G_VRH': 79.0, 'G_Voigt': 80.0, 'G_Voigt_Reuss_Hill': 79.0, 'K_Reuss': 190.0, 'K_VRH': 190.0, 'K_Voigt': 190.0, 'K_Voigt_Reuss_Hill': 190.0, 'elastic_anisotropy': 0.13, 'elastic_tensor': [[319.0, 125.0, 125.0, 0.0, 0.0, 0.0], [125.0, 319.0, 125.0, 0.0, 0.0, 0.0], [125.0, 125.0, 319.0, 0.0, 0.0, 0.0], [0.0, 0.0, 0.0, 69.0, 0.0, 0.0], [0.0, 0.0, 0.0, 0.0, 69.0, 0.0], [0.0, 0.0, 0.0, 0.0, 0.0, 69.0]], 'homogeneous_poisson': 0.32, 'poisson_ratio': 0.32, 'universal_anisotropy': 0.13, 'elastic_tensor_original': [[316.0594691588703, 123.12766671037458, 123.12140988244376, 0.0004247320604253712, -0.00026226057615556266, 0.0009538815752549878], [124.11793637468124, 318.07681766485524, 124.11793637468124, 0.0, 0.0, 0.0], [128.9886098405392, 128.9886098405392, 321.81534844023474, 0.0, 0.0, 0.0], [1.7933314021866987e-05, 1.7699980943764626e-06, 4.089995595767849e-06, 69.33456575322415, 0.0, 0.0], [-2.887996889998516e-05, -0.00027554970327067963, -0.0002293597530121493, 0.0, 69.33605429162121, 0.0], [-0.00036758960415777587, -0.00036902293594827645, -0.00040050956870690466, 0.0, 0.0, 69.33460965651022]], 'compliance_tensor': [[4.0, -1.1, -1.1, -0.0, -0.0, -0.0], [-1.1, 4.0, -1.1, -0.0, -0.0, 0.0], [-1.1, -1.1, 4.0, 0.0, -0.0, -0.0], [-0.0, -0.0, 0.0, 14.4, 0.0, 0.0], [-0.0, -0.0, -0.0, 0.0, 14.4, 0.0], [-0.0, 0.0, -0.0, 0.0, 0.0, 14.4]], 'warnings': [], 'nsites': 4}",0.0
705,mp-861672,Ti2FeIr,"{'Ti': 2.0, 'Fe': 1.0, 'Ir': 1.0}",0.16811635255747065,9.950049065017923,"{'G_Reuss': 72.0, 'G_VRH': 72.0, 'G_Voigt': 73.0, 'G_Voigt_Reuss_Hill': 72.0, 'K_Reuss': 191.0, 'K_VRH': 191.0, 'K_Voigt': 191.0, 'K_Voigt_Reuss_Hill': 191.0, 'elastic_anisotropy': 0.04, 'elastic_tensor': [[278.0, 147.0, 147.0, 0.0, 0.0, 0.0], [147.0, 278.0, 147.0, 0.0, 0.0, 0.0], [147.0, 147.0, 278.0, 0.0, 0.0, 0.0], [0.0, 0.0, 0.0, 77.0, 0.0, 0.0], [0.0, 0.0, 0.0, 0.0, 77.0, 0.0], [0.0, 0.0, 0.0, 0.0, 0.0, 77.0]], 'homogeneous_poisson': 0.33, 'poisson_ratio': 0.33, 'universal_anisotropy': 0.04, 'elastic_tensor_original': [[275.77358538424863, 144.05180593004894, 144.05180593004894, 0.0, 0.0, 0.0], [148.49293531501107, 278.50493544688237, 148.49293531501107, 0.0, 0.0, 0.0], [148.4983398803492, 148.4983398803492, 278.5087320176952, 0.0, 0.0, 0.0], [-3.471976166986025e-05, -2.2789774308362374e-05, 2.986880368333834e-06, 77.43521473960895, 0.0, 0.0], [0.00046571505139425437, 0.0005098550578428293, 0.000490531685379052, 0.0, 77.43558185275049, 0.0], [9.135261272915069e-05, 9.498596952854017e-05, 0.00011196925915033665, 0.0, 0.0, 77.43546776588106]], 'compliance_tensor': [[5.7, -2.0, -2.0, 0.0, 0.0, -0.0], [-2.0, 5.7, -2.0, -0.0, 0.0, 0.0], [-2.0, -2.0, 5.7, 0.0, -0.0, 0.0], [0.0, -0.0, 0.0, 12.9, -0.0, -0.0], [0.0, 0.0, -0.0, -0.0, 12.9, -0.0], [-0.0, 0.0, 0.0, -0.0, -0.0, 12.9]], 'warnings': [], 'nsites': 4}",0.0
706,mp-861958,Ti2MnBe,"{'Ti': 2.0, 'Mn': 1.0, 'Be': 1.0}",0.13735581290259294,5.074745986110234,"{'G_Reuss': 53.0, 'G_VRH': 53.0, 'G_Voigt': 54.0, 'G_Voigt_Reuss_Hill': 53.0, 'K_Reuss': 153.0, 'K_VRH': 153.0, 'K_Voigt': 153.0, 'K_Voigt_Reuss_Hill': 153.0, 'elastic_anisotropy': 0.15, 'elastic_tensor': [[211.0, 124.0, 124.0, 0.0, 0.0, 0.0], [124.0, 211.0, 124.0, 0.0, 0.0, 0.0], [124.0, 124.0, 211.0, 0.0, 0.0, 0.0], [0.0, 0.0, 0.0, 61.0, 0.0, 0.0], [0.0, 0.0, 0.0, 0.0, 61.0, 0.0], [0.0, 0.0, 0.0, 0.0, 0.0, 61.0]], 'homogeneous_poisson': 0.34, 'poisson_ratio': 0.34, 'universal_anisotropy': 0.15, 'elastic_tensor_original': [[211.09347605088462, 124.33500032655556, 124.33500032655556, 0.0, 0.0, 0.0], [124.3521550673811, 211.11269290945282, 124.3521550673811, 0.0, 0.0, 0.0], [124.32730979015358, 124.32730979015358, 211.08192408494727, 0.0, 0.0, 0.0], [-0.00020726706944971515, -7.591030189339159e-05, -0.0001232203476750163, 61.43745777500157, 0.0, 0.0], [0.00039663714223139434, -0.00020995350106685297, 0.00023381692602251529, 0.0, 61.43662383011917, 0.0], [0.00017266680200175022, 0.0002874267876582428, 0.0005184902880169896, 0.0, 0.0, 61.43732918439737]], 'compliance_tensor': [[8.4, -3.1, -3.1, 0.0, 0.0, -0.0], [-3.1, 8.4, -3.1, -0.0, 0.0, 0.0], [-3.1, -3.1, 8.4, 0.0, -0.0, 0.0], [0.0, -0.0, 0.0, 16.3, -0.0, -0.0], [0.0, 0.0, -0.0, -0.0, 16.3, -0.0], [-0.0, 0.0, 0.0, -0.0, -0.0, 16.3]], 'warnings': [], 'nsites': 4}",0.0
707,mp-862831,PaTiTc2,"{'Pa': 1.0, 'Ti': 1.0, 'Tc': 2.0}",0.15155048554712566,11.151404478968328,"{'G_Reuss': 45.0, 'G_VRH': 49.0, 'G_Voigt': 53.0, 'G_Voigt_Reuss_Hill': 49.0, 'K_Reuss': 161.0, 'K_VRH': 161.0, 'K_Voigt': 161.0, 'K_Voigt_Reuss_Hill': 161.0, 'elastic_anisotropy': 0.95, 'elastic_tensor': [[269.0, 107.0, 107.0, 0.0, 0.0, 0.0], [107.0, 269.0, 107.0, 0.0, 0.0, 0.0], [107.0, 107.0, 269.0, 0.0, 0.0, 0.0], [0.0, 0.0, 0.0, 34.0, 0.0, 0.0], [0.0, 0.0, 0.0, 0.0, 34.0, 0.0], [0.0, 0.0, 0.0, 0.0, 0.0, 34.0]], 'homogeneous_poisson': 0.36, 'poisson_ratio': 0.36, 'universal_anisotropy': 0.95, 'elastic_tensor_original': [[269.33002175940925, 106.89404859474072, 106.89404859474072, 0.0, 0.0, 0.0], [106.89404859474072, 269.33002175940925, 106.89404859474078, 0.0, 0.0, 0.0], [106.89404859474077, 106.89404859474072, 269.33002175940925, 0.0, 0.0, 0.0], [0.0, 0.0, 0.0, 34.30763967112652, 0.0, 0.0], [0.0, 0.0, 0.0, 0.0, 34.30763967112654, 0.0], [0.0, 0.0, 0.0, 0.0, 0.0, 34.30763967112653]], 'compliance_tensor': [[4.8, -1.4, -1.4, -0.0, 0.0, 0.0], [-1.4, 4.8, -1.4, 0.0, -0.0, -0.0], [-1.4, -1.4, 4.8, 0.0, 0.0, -0.0], [-0.0, 0.0, 0.0, 29.1, 0.0, 0.0], [0.0, -0.0, 0.0, 0.0, 29.1, 0.0], [0.0, -0.0, 0.0, 0.0, 0.0, 29.1]], 'warnings': ['Contains a rare earth element'], 'nsites': 4}",0.0
708,mp-863690,Ti2MnCo,"{'Ti': 2.0, 'Mn': 1.0, 'Co': 1.0}",0.15697612740344413,6.6495117830951775,"{'G_Reuss': 81.0, 'G_VRH': 84.0, 'G_Voigt': 88.0, 'G_Voigt_Reuss_Hill': 84.0, 'K_Reuss': 181.0, 'K_VRH': 181.0, 'K_Voigt': 181.0, 'K_Voigt_Reuss_Hill': 181.0, 'elastic_anisotropy': 0.42, 'elastic_tensor': [[340.0, 101.0, 101.0, 0.0, 0.0, 0.0], [101.0, 340.0, 101.0, 0.0, 0.0, 0.0], [101.0, 101.0, 340.0, 0.0, 0.0, 0.0], [0.0, 0.0, 0.0, 67.0, 0.0, 0.0], [0.0, 0.0, 0.0, 0.0, 67.0, 0.0], [0.0, 0.0, 0.0, 0.0, 0.0, 67.0]], 'homogeneous_poisson': 0.3, 'poisson_ratio': 0.3, 'universal_anisotropy': 0.42, 'elastic_tensor_original': [[336.329285824946, 97.55431257308153, 97.55431257308153, 0.0, 0.0, 0.0], [104.23016858793558, 345.20460514673937, 104.23016858793558, 0.0, 0.0, 0.0], [101.9145140498153, 101.9145140498153, 339.6406769782695, 0.0, 0.0, 0.0], [0.021754908224911135, 0.02681841156716903, 0.02507559696828378, 66.73228871339629, 0.0, 0.0], [0.0005435942578022187, 0.0005479478973043288, 0.0005603138645007276, 0.0, 66.74027119464272, 0.0], [-0.00017125076236257998, -0.0001547297406801593, -0.00019409236611893604, 0.0, 0.0, 66.72432205552609]], 'compliance_tensor': [[3.4, -0.8, -0.8, 0.0, -0.0, -0.0], [-0.8, 3.4, -0.8, -0.0, 0.0, -0.0], [-0.8, -0.8, 3.4, -0.0, -0.0, 0.0], [0.0, -0.0, -0.0, 15.0, -0.0, -0.0], [-0.0, 0.0, -0.0, -0.0, 15.0, -0.0], [-0.0, -0.0, 0.0, -0.0, -0.0, 15.0]], 'warnings': [], 'nsites': 4}",0.0