,mp_id,Formula,Composition,IPF,Density,Elastic_Tensor,E_above_Hull
61,mp-2187,TiSb,"{'Ti': 1.0, 'Sb': 1.0}",0.11222376500406839,6.344016707746623,"{'G_Reuss': 37.0, 'G_VRH': 45.0, 'G_Voigt': 53.0, 'G_Voigt_Reuss_Hill': 45.0, 'K_Reuss': 88.0, 'K_VRH': 89.0, 'K_Voigt': 90.0, 'K_Voigt_Reuss_Hill': 89.0, 'elastic_anisotropy': 2.04, 'elastic_tensor': [[119.0, 63.0, 77.0, 0.0, 0.0, 0.0], [63.0, 119.0, 77.0, 0.0, 0.0, 0.0], [77.0, 77.0, 139.0, 0.0, 0.0, 0.0], [0.0, 0.0, 0.0, 91.0, 0.0, 0.0], [0.0, 0.0, 0.0, 0.0, 91.0, 0.0], [0.0, 0.0, 0.0, 0.0, 0.0, 28.0]], 'homogeneous_poisson': 0.28, 'poisson_ratio': 0.28, 'universal_anisotropy': 2.04, 'elastic_tensor_original': [[119.2523370998832, 63.716187082502145, 77.61971466318636, 0.0, 0.0, 1.628734037692741e-06], [62.99847603584436, 119.0089541123846, 77.04575785165696, 0.0, 0.0, -1.6877764220013052e-05], [75.93767316258577, 75.93769170135178, 138.99456348504157, 0.0, 0.0, -1.0799351102347855e-05], [5.94534015902939e-05, 0.0001864733963197922, 5.456323029384977e-05, 90.76516654612222, -1.2893344514773956e-05, 0.0], [1.2829996292118492e-05, -2.8666658279327966e-07, -4.214665448310299e-05, -7.9999976874991e-08, 90.75590902251892, 0.0], [-0.1305947167212808, 0.011456565729420137, -0.007873871577707813, 0.0, 0.0, 27.78693564025498]], 'compliance_tensor': [[14.1, -3.9, -5.6, 0.0, -0.0, 0.0], [-3.9, 14.1, -5.6, 0.0, 0.0, 0.0], [-5.6, -5.6, 13.4, -0.0, -0.0, -0.0], [-0.0, 0.0, 0.0, 11.0, 0.0, -0.0], [-0.0, 0.0, -0.0, 0.0, 11.0, -0.0], [0.0, 0.0, -0.0, 0.0, -0.0, 35.9]], 'warnings': [], 'nsites': 4}",0.0
62,mp-2194,TiSe2,"{'Ti': 1.0, 'Se': 2.0}",0.15524101899102893,4.692579364547135,"{'G_Reuss': 4.0, 'G_VRH': 12.0, 'G_Voigt': 19.0, 'G_Voigt_Reuss_Hill': 12.0, 'K_Reuss': 5.0, 'K_VRH': 16.0, 'K_Voigt': 27.0, 'K_Voigt_Reuss_Hill': 16.0, 'elastic_anisotropy': 21.84, 'elastic_tensor': [[93.0, 20.0, 3.0, -1.0, 0.0, 0.0], [20.0, 93.0, 3.0, 1.0, 0.0, 0.0], [3.0, 3.0, 5.0, 0.0, 0.0, 0.0], [-1.0, 1.0, 0.0, 2.0, 0.0, 0.0], [0.0, 0.0, 0.0, 0.0, 2.0, -1.0], [0.0, 0.0, 0.0, 0.0, -1.0, 37.0]], 'homogeneous_poisson': 0.2, 'poisson_ratio': 0.2, 'universal_anisotropy': 21.84, 'elastic_tensor_original': [[95.22634590816237, 19.164887531763203, 3.556518444913989, 2.1400657571360173, 0.0, 0.0], [18.169891583323146, 94.22044656770133, 2.436428744422434, -1.6771486280432544, 0.0, 0.0], [2.0329093413617443, 2.032908141167426, 5.480741305883853, 0.0, 0.0, 0.0], [0.45465417692741206, -0.5197899671001611, -0.12327828987739062, 2.236926941497305, 0.0, 0.0], [-2.8716646643900682e-05, 3.699330753911139e-05, 3.574664174198766e-05, -5.456662861922562e-06, 2.4964013560104727, 0.49156168725066857], [-0.008346151551959731, -0.0019444421417364258, -0.001483959090596686, -0.001048189357648557, 0.5009309063520176, 35.362058139364436]], 'compliance_tensor': [[11.4, -2.4, -4.1, 4.9, -0.0, 0.0], [-2.4, 11.4, -4.1, -4.9, 0.0, 0.0], [-4.1, -4.1, 186.2, -0.0, 0.0, -0.0], [4.9, -4.9, -0.0, 426.1, 0.0, 0.0], [-0.0, 0.0, 0.0, 0.0, 426.1, 9.8], [0.0, 0.0, -0.0, 0.0, 9.8, 27.5]], 'warnings': [], 'nsites': 3}",0.0
63,mp-22033,Ti5Sb3,"{'Ti': 5.0, 'Sb': 3.0}",0.1309597195217656,6.533810701664811,"{'G_Reuss': 45.0, 'G_VRH': 46.0, 'G_Voigt': 47.0, 'G_Voigt_Reuss_Hill': 46.0, 'K_Reuss': 110.0, 'K_VRH': 111.0, 'K_Voigt': 112.0, 'K_Voigt_Reuss_Hill': 111.0, 'elastic_anisotropy': 0.29, 'elastic_tensor': [[176.0, 87.0, 97.0, 0.0, 0.0, 0.0], [87.0, 180.0, 64.0, 0.0, 0.0, 0.0], [97.0, 64.0, 153.0, 0.0, 0.0, 0.0], [0.0, 0.0, 0.0, 56.0, 0.0, 0.0], [0.0, 0.0, 0.0, 0.0, 38.0, 0.0], [0.0, 0.0, 0.0, 0.0, 0.0, 56.0]], 'homogeneous_poisson': 0.32, 'poisson_ratio': 0.32, 'universal_anisotropy': 0.29, 'elastic_tensor_original': [[152.8727464462991, 98.71524247011028, 66.49522439622194, 0.0, 0.0, 0.0], [95.64606686023575, 175.93129000591188, 90.14502963682466, 0.0, 0.0, 0.0], [61.933938985710974, 83.77394577852395, 179.76343331464045, 0.0, 0.0, 0.0], [-0.0009534124735593992, -0.003528169146087853, -0.0005589461255613861, 55.86582059197259, 0.0, 0.0], [-0.000132360048469856, 0.00046639683746334525, 0.0009672503542122163, 0.0, 55.89141116098699, 0.0], [0.01762003391452617, 0.01636322006421318, -0.02113764869480156, 0.0, 0.0, 37.518754709705185]], 'compliance_tensor': [[10.0, -3.0, -5.1, 0.0, 0.0, 0.0], [-3.0, 7.5, -1.2, 0.0, 0.0, 0.0], [-5.1, -1.2, 10.3, 0.0, 0.0, -0.0], [0.0, 0.0, 0.0, 17.9, 0.0, 0.0], [0.0, 0.0, 0.0, 0.0, 26.7, 0.0], [0.0, 0.0, -0.0, 0.0, 0.0, 17.9]], 'warnings': [], 'nsites': 32}",0.0
64,mp-23264,TiI3,"{'Ti': 1.0, 'I': 3.0}",0.17478120316718795,4.359640173734073,"{'G_Reuss': 1.0, 'G_VRH': 2.0, 'G_Voigt': 3.0, 'G_Voigt_Reuss_Hill': 2.0, 'K_Reuss': 2.0, 'K_VRH': 4.0, 'K_Voigt': 6.0, 'K_Voigt_Reuss_Hill': 4.0, 'elastic_anisotropy': 16.16, 'elastic_tensor': [[4.0, 1.0, 1.0, 0.0, 0.0, 0.0], [1.0, 3.0, 2.0, 0.0, 0.0, 0.0], [1.0, 2.0, 41.0, 0.0, 0.0, 0.0], [0.0, 0.0, 0.0, 1.0, 0.0, 0.0], [0.0, 0.0, 0.0, 0.0, 1.0, 0.0], [0.0, 0.0, 0.0, 0.0, 0.0, 0.0]], 'homogeneous_poisson': 0.28, 'poisson_ratio': 0.28, 'universal_anisotropy': 16.16, 'elastic_tensor_original': [[40.56112529277196, 0.5701588485711641, 2.3381558948486836, 0.0, 0.0, 0.0], [1.8262938584002346, 3.88507888750598, 2.5226916220889914, 0.0, 0.0, 0.0], [0.8021451305455015, -0.6877637259399197, 3.0968620411778844, 0.0, 0.0, 0.0], [0.009847683323776255, -0.005459459487035437, 0.031971689869879444, 0.40237259457946084, 0.0, 0.0], [0.016920018980537303, -0.023563452036300784, -0.03335590513379514, 0.0, 1.1243950713608626, 0.0], [-0.0004589428705833405, 0.0018075981774067543, -0.01855523795750199, 0.0, 0.0, 0.7415235589917306]], 'compliance_tensor': [[277.8, -79.7, -5.1, 0.0, 0.0, 0.0], [-79.7, 352.2, -11.3, 0.0, 0.0, 0.0], [-5.1, -11.3, 25.2, 0.0, 0.0, 0.0], [0.0, 0.0, 0.0, 889.4, 0.0, 0.0], [0.0, 0.0, 0.0, 0.0, 1348.6, 0.0], [0.0, 0.0, 0.0, 0.0, 0.0, 2485.3]], 'warnings': ['One or more K, G below 2 GPa'], 'nsites': 16}",0.0
65,mp-2327,TiZn16,"{'Ti': 1.0, 'Zn': 16.0}",0.18627145869938552,7.014325083136486,"{'G_Reuss': 27.0, 'G_VRH': 28.0, 'G_Voigt': 29.0, 'G_Voigt_Reuss_Hill': 28.0, 'K_Reuss': 79.0, 'K_VRH': 79.0, 'K_Voigt': 79.0, 'K_Voigt_Reuss_Hill': 79.0, 'elastic_anisotropy': 0.41, 'elastic_tensor': [[97.0, 63.0, 65.0, 0.0, 0.0, 0.0], [63.0, 118.0, 68.0, 0.0, 0.0, 0.0], [65.0, 68.0, 107.0, 0.0, 0.0, 0.0], [0.0, 0.0, 0.0, 40.0, 0.0, 0.0], [0.0, 0.0, 0.0, 0.0, 29.0, 0.0], [0.0, 0.0, 0.0, 0.0, 0.0, 34.0]], 'homogeneous_poisson': 0.34, 'poisson_ratio': 0.34, 'universal_anisotropy': 0.41, 'elastic_tensor_original': [[97.07542232684052, 65.39906830718981, 62.69843742501936, 0.0, 0.0, 0.0], [65.45439527140734, 107.02505343549888, 67.53771227654022, 0.0, 0.0, 0.0], [63.31010344080349, 67.52195119456074, 117.62317086847987, 0.0, 0.0, 0.0], [0.005278335498968286, 0.005688502592947437, -0.0029930364514776085, 40.11207172207645, 0.0, 0.0], [-0.010143735364154265, -0.01522573960107988, -0.003404957065927629, 0.0, 34.42356044626723, 0.0], [0.01160620512427629, -0.000342595577262308, 0.007522203614801776, 0.0, 0.0, 28.61322408731727]], 'compliance_tensor': [[19.7, -5.7, -8.4, 0.0, 0.0, 0.0], [-5.7, 15.0, -6.0, 0.0, -0.0, 0.0], [-8.4, -6.0, 18.3, 0.0, 0.0, 0.0], [0.0, 0.0, 0.0, 24.9, 0.0, 0.0], [0.0, -0.0, 0.0, 0.0, 34.9, 0.0], [0.0, 0.0, 0.0, 0.0, 0.0, 29.0]], 'warnings': [], 'nsites': 34}",0.0
66,mp-2339,Ti3Pt,"{'Ti': 3.0, 'Pt': 1.0}",0.15506859696804765,8.76669891569527,"{'G_Reuss': 57.0, 'G_VRH': 58.0, 'G_Voigt': 58.0, 'G_Voigt_Reuss_Hill': 58.0, 'K_Reuss': 166.0, 'K_VRH': 166.0, 'K_Voigt': 166.0, 'K_Voigt_Reuss_Hill': 166.0, 'elastic_anisotropy': 0.11, 'elastic_tensor': [[259.0, 120.0, 120.0, 0.0, 0.0, 0.0], [120.0, 259.0, 120.0, 0.0, 0.0, 0.0], [120.0, 120.0, 259.0, 0.0, 0.0, 0.0], [0.0, 0.0, 0.0, 51.0, 0.0, 0.0], [0.0, 0.0, 0.0, 0.0, 51.0, 0.0], [0.0, 0.0, 0.0, 0.0, 0.0, 51.0]], 'homogeneous_poisson': 0.34, 'poisson_ratio': 0.34, 'universal_anisotropy': 0.11, 'elastic_tensor_original': [[259.0999404721884, 120.183606626814, 120.183606626814, 0.0, 0.0, 0.0], [120.1832163940201, 259.09820788517237, 120.1832163940201, 0.0, 0.0, 0.0], [120.18191401916282, 120.18191401916282, 259.09734768569484, 0.0, 0.0, 0.0], [-0.00044632003234400323, -0.0003233331255501719, -0.0004381834046502242, 51.09421321190248, 0.0, 0.0], [0.0003090362477311976, 0.00011115629377342954, 0.0003230162180442932, 0.0, 51.09462692176038, 0.0], [-0.0002636703346470215, -5.418705205812519e-05, 1.2776191225876474e-05, 0.0, 0.0, 51.094439121948334]], 'compliance_tensor': [[5.5, -1.7, -1.7, -0.0, 0.0, -0.0], [-1.7, 5.5, -1.7, -0.0, -0.0, 0.0], [-1.7, -1.7, 5.5, 0.0, -0.0, -0.0], [-0.0, -0.0, 0.0, 19.6, -0.0, 0.0], [0.0, -0.0, -0.0, -0.0, 19.6, 0.0], [-0.0, 0.0, -0.0, 0.0, 0.0, 19.6]], 'warnings': [], 'nsites': 8}",0.0
67,mp-2354,Ti3Hg,"{'Ti': 3.0, 'Hg': 1.0}",0.22564620238272717,8.13860497378146,"{'G_Reuss': 67.0, 'G_VRH': 68.0, 'G_Voigt': 69.0, 'G_Voigt_Reuss_Hill': 68.0, 'K_Reuss': 119.0, 'K_VRH': 119.0, 'K_Voigt': 119.0, 'K_Voigt_Reuss_Hill': 119.0, 'elastic_anisotropy': 0.17, 'elastic_tensor': [[232.0, 62.0, 62.0, 0.0, 0.0, 0.0], [62.0, 232.0, 62.0, 0.0, 0.0, 0.0], [62.0, 62.0, 232.0, 0.0, 0.0, 0.0], [0.0, 0.0, 0.0, 58.0, 0.0, 0.0], [0.0, 0.0, 0.0, 0.0, 58.0, 0.0], [0.0, 0.0, 0.0, 0.0, 0.0, 58.0]], 'homogeneous_poisson': 0.26, 'poisson_ratio': 0.26, 'universal_anisotropy': 0.17, 'elastic_tensor_original': [[232.00231243473942, 61.82819788568704, 61.82819788568704, 0.0, 0.0, 0.0], [61.829340814652525, 232.00493072647438, 61.829340814652525, 0.0, 0.0, 0.0], [61.8274341030383, 61.8274341030383, 232.00081360956676, 0.0, 0.0, 0.0], [-5.523337969885698e-05, -0.0002088701753351981, 2.686335588370742e-05, 58.29265631359142, 0.0, 0.0], [-0.0003107702608752709, -3.1173359501722975e-05, -0.00019258682833312054, 0.0, 58.29232940998366, 0.0], [8.949007512197246e-05, 6.745338995686153e-05, -5.2470044045902306e-05, 0.0, 0.0, 58.29258110686161]], 'compliance_tensor': [[4.9, -1.0, -1.0, 0.0, 0.0, 0.0], [-1.0, 4.9, -1.0, 0.0, 0.0, -0.0], [-1.0, -1.0, 4.9, -0.0, -0.0, 0.0], [0.0, 0.0, -0.0, 17.2, 0.0, -0.0], [0.0, 0.0, -0.0, 0.0, 17.2, -0.0], [0.0, -0.0, 0.0, -0.0, -0.0, 17.2]], 'warnings': [], 'nsites': 8}",0.0
68,mp-246,TiF3,"{'Ti': 1.0, 'F': 3.0}",0.11339197355557593,2.8243455697091604,"{'G_Reuss': 31.0, 'G_VRH': 45.0, 'G_Voigt': 59.0, 'G_Voigt_Reuss_Hill': 45.0, 'K_Reuss': 104.0, 'K_VRH': 104.0, 'K_Voigt': 104.0, 'K_Voigt_Reuss_Hill': 104.0, 'elastic_anisotropy': 4.55, 'elastic_tensor': [[259.0, 26.0, 26.0, 0.0, 0.0, 0.0], [26.0, 259.0, 26.0, 0.0, 0.0, 0.0], [26.0, 26.0, 259.0, 0.0, 0.0, 0.0], [0.0, 0.0, 0.0, 21.0, 0.0, 0.0], [0.0, 0.0, 0.0, 0.0, 21.0, 0.0], [0.0, 0.0, 0.0, 0.0, 0.0, 21.0]], 'homogeneous_poisson': 0.31, 'poisson_ratio': 0.31, 'universal_anisotropy': 4.55, 'elastic_tensor_original': [[259.49114479230917, 25.85085744542898, 25.85085744542898, 0.0, 0.0, 0.0], [25.760376729526104, 259.3661900263175, 25.760376729526104, 0.0, 0.0, 0.0], [25.818182085681045, 25.818182085681045, 259.39948531023254, 0.0, 0.0, 0.0], [0.006363189914450521, 0.007146114900024116, 0.005928304113068259, 20.81425217733288, 0.0, 0.0], [-0.0029421100245984027, -0.002462035536471324, -0.002497975721012534, 0.0, 20.814882902379342, 0.0], [0.005908321884184063, 0.005240885942769924, 0.006077055269629447, 0.0, 0.0, 20.81505307669391]], 'compliance_tensor': [[3.9, -0.4, -0.4, -0.0, 0.0, -0.0], [-0.4, 3.9, -0.4, -0.0, -0.0, 0.0], [-0.4, -0.4, 3.9, 0.0, -0.0, 0.0], [-0.0, -0.0, 0.0, 48.0, -0.0, -0.0], [0.0, -0.0, -0.0, -0.0, 48.0, -0.0], [-0.0, 0.0, 0.0, -0.0, -0.0, 48.0]], 'warnings': [], 'nsites': 4}",0.0
69,mp-24726,TiH2,"{'Ti': 1.0, 'H': 2.0}",0.11973066672060946,3.832731997844202,"{'G_Reuss': 14.0, 'G_VRH': 20.0, 'G_Voigt': 26.0, 'G_Voigt_Reuss_Hill': 20.0, 'K_Reuss': 138.0, 'K_VRH': 138.0, 'K_Voigt': 139.0, 'K_Voigt_Reuss_Hill': 138.0, 'elastic_anisotropy': 4.41, 'elastic_tensor': [[220.0, 94.0, 112.0, 0.0, 0.0, 0.0], [94.0, 220.0, 112.0, 0.0, 0.0, 0.0], [112.0, 112.0, 172.0, 0.0, 0.0, 0.0], [0.0, 0.0, 0.0, 12.0, 0.0, 0.0], [0.0, 0.0, 0.0, 0.0, 12.0, 0.0], [0.0, 0.0, 0.0, 0.0, 0.0, 7.0]], 'homogeneous_poisson': 0.43, 'poisson_ratio': 0.43, 'universal_anisotropy': 4.41, 'elastic_tensor_original': [[220.33243543074505, 94.37347308603138, 112.0995415798167, 0.0, 0.0, 0.0], [94.37347308603138, 220.33243543074505, 112.09954157981667, 0.0, 0.0, 0.0], [110.90908966886606, 110.90908966886606, 171.94238777565184, 0.0, 0.0, 0.0], [0.0, 0.0, 0.0, 11.642422315447657, 0.0, 0.0], [0.0, 0.0, 0.0, 0.0, 11.642422315447655, 0.0], [0.06655924685887903, -0.06655924685887912, 0.0, 0.0, 0.0, 6.655633283493708]], 'compliance_tensor': [[6.9, -1.0, -3.8, 0.0, 0.0, -0.0], [-1.0, 6.9, -3.8, -0.0, -0.0, -0.0], [-3.8, -3.8, 10.8, -0.0, -0.0, 0.0], [0.0, -0.0, -0.0, 85.9, -0.0, -0.0], [0.0, -0.0, -0.0, -0.0, 85.9, -0.0], [-0.0, -0.0, 0.0, -0.0, -0.0, 150.2]], 'warnings': [], 'nsites': 3}",0.0
70,mp-2583,TiRh,"{'Ti': 1.0, 'Rh': 1.0}",0.1435665383511244,8.321025415894498,"{'G_Reuss': 49.0, 'G_VRH': 49.0, 'G_Voigt': 50.0, 'G_Voigt_Reuss_Hill': 49.0, 'K_Reuss': 189.0, 'K_VRH': 190.0, 'K_Voigt': 190.0, 'K_Voigt_Reuss_Hill': 190.0, 'elastic_anisotropy': 0.05, 'elastic_tensor': [[259.0, 142.0, 162.0, 0.0, 0.0, 0.0], [142.0, 259.0, 162.0, 0.0, 0.0, 0.0], [162.0, 162.0, 255.0, 0.0, 0.0, 0.0], [0.0, 0.0, 0.0, 50.0, 0.0, 0.0], [0.0, 0.0, 0.0, 0.0, 50.0, 0.0], [0.0, 0.0, 0.0, 0.0, 0.0, 46.0]], 'homogeneous_poisson': 0.38, 'poisson_ratio': 0.38, 'universal_anisotropy': 0.05, 'elastic_tensor_original': [[259.30952318255004, 142.2060524455314, 163.03029957254756, 0.0, 0.0, 0.0], [142.20428342889178, 259.30705704920393, 163.02745566613527, 0.0, 0.0, 0.0], [161.24705594937993, 161.24705594937993, 255.18031117123212, 0.0, 0.0, 0.0], [-0.00022178644713563653, -0.0002469763075378439, -6.938939004005133e-05, 49.73977782301156, 0.0, 0.0], [1.1670093422907141e-05, -2.2372850397550577e-05, -9.707258538349519e-05, 0.0, 49.73963953000027, 0.0], [0.00039688235096677776, 0.0002915960918922785, 0.00026262905432875125, 0.0, 0.0, 46.15302833133003]], 'compliance_tensor': [[6.8, -1.7, -3.3, -0.0, 0.0, 0.0], [-1.7, 6.8, -3.3, 0.0, 0.0, 0.0], [-3.3, -3.3, 8.0, 0.0, 0.0, 0.0], [-0.0, 0.0, 0.0, 20.1, 0.0, 0.0], [0.0, 0.0, 0.0, 0.0, 20.1, 0.0], [0.0, 0.0, 0.0, 0.0, 0.0, 21.7]], 'warnings': [], 'nsites': 2}",0.0
71,mp-2643,Ti3Cu4,"{'Ti': 3.0, 'Cu': 4.0}",0.17368930902922072,6.748300335520562,"{'G_Reuss': 53.0, 'G_VRH': 61.0, 'G_Voigt': 69.0, 'G_Voigt_Reuss_Hill': 61.0, 'K_Reuss': 132.0, 'K_VRH': 132.0, 'K_Voigt': 133.0, 'K_Voigt_Reuss_Hill': 132.0, 'elastic_anisotropy': 1.5, 'elastic_tensor': [[170.0, 120.0, 102.0, 0.0, 0.0, 0.0], [120.0, 170.0, 102.0, 0.0, 0.0, 0.0], [102.0, 102.0, 207.0, 0.0, 0.0, 0.0], [0.0, 0.0, 0.0, 81.0, 0.0, 0.0], [0.0, 0.0, 0.0, 0.0, 81.0, 0.0], [0.0, 0.0, 0.0, 0.0, 0.0, 108.0]], 'homogeneous_poisson': 0.3, 'poisson_ratio': 0.3, 'universal_anisotropy': 1.5, 'elastic_tensor_original': [[169.7518660445293, 119.92453778708611, 99.77115537566881, 0.0, 0.0, 0.0], [119.92823294285591, 169.75733702100598, 99.77643881851014, 0.0, 0.0, 0.0], [103.41013636800754, 103.41013636800754, 206.82056045433916, 0.0, 0.0, 0.0], [-0.00015526089704766824, 0.0006295651171745565, 0.00039028623911654736, 81.12291562238656, 0.0, 0.0], [0.001152637692005877, 0.002326227848341673, 0.00219191752752833, 0.0, 81.12307337655699, 0.0], [-0.0007181934483903561, -0.0001720816911814972, -0.0005315294875554811, 0.0, 0.0, 107.73720632553874]], 'compliance_tensor': [[12.7, -7.4, -2.6, 0.0, -0.0, 0.0], [-7.4, 12.7, -2.6, -0.0, 0.0, -0.0], [-2.6, -2.6, 7.4, -0.0, 0.0, -0.0], [0.0, -0.0, -0.0, 12.3, -0.0, 0.0], [-0.0, 0.0, 0.0, -0.0, 12.3, -0.0], [0.0, -0.0, -0.0, 0.0, -0.0, 9.3]], 'warnings': [], 'nsites': 7}",0.0
72,mp-2749,TiBe2,"{'Ti': 1.0, 'Be': 2.0}",0.1296722702846171,3.293295530284812,"{'G_Reuss': 106.0, 'G_VRH': 106.0, 'G_Voigt': 107.0, 'G_Voigt_Reuss_Hill': 106.0, 'K_Reuss': 124.0, 'K_VRH': 124.0, 'K_Voigt': 124.0, 'K_Voigt_Reuss_Hill': 124.0, 'elastic_anisotropy': 0.06, 'elastic_tensor': [[248.0, 62.0, 62.0, 0.0, 0.0, 0.0], [62.0, 248.0, 62.0, 0.0, 0.0, 0.0], [62.0, 62.0, 248.0, 0.0, 0.0, 0.0], [0.0, 0.0, 0.0, 116.0, 0.0, 0.0], [0.0, 0.0, 0.0, 0.0, 116.0, 0.0], [0.0, 0.0, 0.0, 0.0, 0.0, 116.0]], 'homogeneous_poisson': 0.17, 'poisson_ratio': 0.17, 'universal_anisotropy': 0.06, 'elastic_tensor_original': [[247.7979464102583, 61.53044517308795, 61.53044517308795, 0.0, 0.0, 0.0], [61.525893828100635, 247.79529155831207, 61.525893828100635, 0.0, 0.0, 0.0], [61.53492317191557, 61.53492317191557, 247.80100355019715, 0.0, 0.0, 0.0], [-0.0001738432084297909, -0.0001411165652770183, -0.00027531313552468486, 116.44825919365319, 0.0, 0.0], [8.309660696357737e-05, 0.0004755763249717825, 0.00010335992573758392, 0.0, 116.44834424692534, 0.0], [-7.520327930230208e-05, 0.0002508264864518526, -0.00011526325051867842, 0.0, 0.0, 116.44917077299822]], 'compliance_tensor': [[4.5, -0.9, -0.9, 0.0, -0.0, 0.0], [-0.9, 4.5, -0.9, 0.0, 0.0, -0.0], [-0.9, -0.9, 4.5, -0.0, 0.0, 0.0], [0.0, 0.0, -0.0, 8.6, -0.0, -0.0], [-0.0, 0.0, 0.0, -0.0, 8.6, -0.0], [0.0, -0.0, 0.0, -0.0, -0.0, 8.6]], 'warnings': [], 'nsites': 6}",0.0
73,mp-27634,TiBr4,"{'Ti': 1.0, 'Br': 4.0}",0.061449713892677164,2.6587862755503147,,0.565339749999616
74,mp-28214,TiBr3,"{'Ti': 1.0, 'Br': 3.0}",0.089894506032049,3.824505583214713,,0.0
75,mp-28974,TiF4,"{'Ti': 1.0, 'F': 4.0}",0.11140387659074905,2.7088272901121204,,0.0
76,mp-291,TiOs,"{'Ti': 1.0, 'Os': 1.0}",0.13032742309620188,13.333766927112507,"{'G_Reuss': 133.0, 'G_VRH': 134.0, 'G_Voigt': 136.0, 'G_Voigt_Reuss_Hill': 134.0, 'K_Reuss': 248.0, 'K_VRH': 248.0, 'K_Voigt': 248.0, 'K_Voigt_Reuss_Hill': 248.0, 'elastic_anisotropy': 0.1, 'elastic_tensor': [[461.0, 142.0, 142.0, 0.0, 0.0, 0.0], [142.0, 461.0, 142.0, 0.0, 0.0, 0.0], [142.0, 142.0, 461.0, 0.0, 0.0, 0.0], [0.0, 0.0, 0.0, 120.0, 0.0, 0.0], [0.0, 0.0, 0.0, 0.0, 120.0, 0.0], [0.0, 0.0, 0.0, 0.0, 0.0, 120.0]], 'homogeneous_poisson': 0.27, 'poisson_ratio': 0.27, 'universal_anisotropy': 0.1, 'elastic_tensor_original': [[460.82828101046164, 142.28986717727474, 142.28986717727474, 0.0, 0.0, 0.0], [142.28943089753935, 460.82745379687606, 142.28943089753935, 0.0, 0.0, 0.0], [142.28881038160526, 142.28881038160526, 460.82699330584785, 0.0, 0.0, 0.0], [-4.586656870940228e-06, -2.09232886553464e-05, -0.0001038997781481081, 119.82043592085566, 0.0, 0.0], [-0.000133976380594465, -0.00024064948615281379, -0.00016479964811242715, 0.0, 119.82033385774027, 0.0], [4.004991448459284e-05, 5.016989287523943e-05, 6.079987017778662e-05, 0.0, 0.0, 119.8207840801123]], 'compliance_tensor': [[2.5, -0.6, -0.6, -0.0, 0.0, -0.0], [-0.6, 2.5, -0.6, -0.0, -0.0, 0.0], [-0.6, -0.6, 2.5, 0.0, -0.0, -0.0], [-0.0, -0.0, 0.0, 8.3, -0.0, -0.0], [0.0, -0.0, -0.0, -0.0, 8.3, -0.0], [-0.0, 0.0, -0.0, -0.0, -0.0, 8.3]], 'warnings': [], 'nsites': 2}",0.0
77,mp-30092,TiCl4,"{'Ti': 1.0, 'Cl': 4.0}",0.05207818237308534,1.5564425603641763,,0.0
78,mp-30218,Ti2P,"{'Ti': 2.0, 'P': 1.0}",0.13222982433412486,4.737914123409664,,0.0