,mp_id,Formula,Composition,IPF,Density,Elastic_Tensor,E_above_Hull
47,mp-1786,Ti3Au,"{'Ti': 3.0, 'Au': 1.0}",0.19289837232119625,8.460278692613556,"{'G_Reuss': 70.0, 'G_VRH': 71.0, 'G_Voigt': 72.0, 'G_Voigt_Reuss_Hill': 71.0, 'K_Reuss': 139.0, 'K_VRH': 139.0, 'K_Voigt': 139.0, 'K_Voigt_Reuss_Hill': 139.0, 'elastic_anisotropy': 0.16, 'elastic_tensor': [[256.0, 81.0, 81.0, 0.0, 0.0, 0.0], [81.0, 256.0, 81.0, 0.0, 0.0, 0.0], [81.0, 81.0, 256.0, 0.0, 0.0, 0.0], [0.0, 0.0, 0.0, 61.0, 0.0, 0.0], [0.0, 0.0, 0.0, 0.0, 61.0, 0.0], [0.0, 0.0, 0.0, 0.0, 0.0, 61.0]], 'homogeneous_poisson': 0.28, 'poisson_ratio': 0.28, 'universal_anisotropy': 0.16, 'elastic_tensor_original': [[255.85064255334999, 80.56760798596443, 80.56760798596443, 0.0, 0.0, 0.0], [80.56670405480206, 255.84926334494745, 80.56670405480206, 0.0, 0.0, 0.0], [80.56769483425826, 80.56769483425826, 255.84759025942208, 0.0, 0.0, 0.0], [7.815650503780934e-05, -0.0002854697439930687, -0.00010701343620473376, 61.26774117964568, 0.0, 0.0], [0.00013630673367881818, 3.323445927340789e-06, 0.00017265993808322007, 0.0, 61.26783880985795, 0.0], [0.0005803335769276889, 7.60399667280862e-05, 0.00011825370941792246, 0.0, 0.0, 61.2679895067893]], 'compliance_tensor': [[4.6, -1.1, -1.1, 0.0, -0.0, -0.0], [-1.1, 4.6, -1.1, -0.0, 0.0, -0.0], [-1.1, -1.1, 4.6, -0.0, -0.0, 0.0], [0.0, -0.0, -0.0, 16.3, -0.0, 0.0], [-0.0, 0.0, -0.0, -0.0, 16.3, 0.0], [-0.0, -0.0, 0.0, 0.0, 0.0, 16.3]], 'warnings': [], 'nsites': 8}",0.0
48,mp-1808,Ti2Ni,"{'Ti': 2.0, 'Ni': 1.0}",0.15343497788015972,5.725013960684072,"{'G_Reuss': 36.0, 'G_VRH': 36.0, 'G_Voigt': 36.0, 'G_Voigt_Reuss_Hill': 36.0, 'K_Reuss': 141.0, 'K_VRH': 141.0, 'K_Voigt': 141.0, 'K_Voigt_Reuss_Hill': 141.0, 'elastic_anisotropy': 0.01, 'elastic_tensor': [[187.0, 119.0, 119.0, 0.0, 0.0, 0.0], [119.0, 187.0, 119.0, 0.0, 0.0, 0.0], [119.0, 119.0, 187.0, 0.0, 0.0, 0.0], [0.0, 0.0, 0.0, 37.0, 0.0, 0.0], [0.0, 0.0, 0.0, 0.0, 37.0, 0.0], [0.0, 0.0, 0.0, 0.0, 0.0, 37.0]], 'homogeneous_poisson': 0.38, 'poisson_ratio': 0.38, 'universal_anisotropy': 0.01, 'elastic_tensor_original': [[186.41903112676468, 118.77614080527862, 118.77614080527862, 0.0, 0.0, 0.0], [118.72614328215123, 186.38238691188457, 118.72614328215123, 0.0, 0.0, 0.0], [119.08435069420153, 119.08435069420153, 186.7799808751008, 0.0, 0.0, 0.0], [0.1975218887870672, 0.18244060465971285, 0.18327315437260042, 36.72019772431073, 0.0, 0.0], [0.20615810139986615, 0.21987497242050993, 0.20497749671233448, 0.0, 36.719312645735805, 0.0], [0.214696596518601, 0.21838295527845455, 0.22937008458486116, 0.0, 0.0, 36.719401165325856]], 'compliance_tensor': [[10.6, -4.1, -4.1, -0.0, 0.0, 0.0], [-4.1, 10.6, -4.1, 0.0, -0.0, 0.0], [-4.1, -4.1, 10.6, 0.0, 0.0, -0.0], [-0.0, 0.0, 0.0, 27.2, -0.0, -0.0], [0.0, -0.0, 0.0, -0.0, 27.2, -0.0], [0.0, 0.0, -0.0, -0.0, -0.0, 27.2]], 'warnings': [], 'nsites': 24}",0.0
49,mp-1822,TiAs,"{'Ti': 1.0, 'As': 1.0}",0.10853808691682632,5.836287445057678,"{'G_Reuss': 67.0, 'G_VRH': 72.0, 'G_Voigt': 77.0, 'G_Voigt_Reuss_Hill': 72.0, 'K_Reuss': 119.0, 'K_VRH': 119.0, 'K_Voigt': 120.0, 'K_Voigt_Reuss_Hill': 119.0, 'elastic_anisotropy': 0.77, 'elastic_tensor': [[183.0, 75.0, 90.0, 0.0, 0.0, 0.0], [75.0, 183.0, 90.0, 0.0, 0.0, 0.0], [90.0, 90.0, 200.0, 0.0, 0.0, 0.0], [0.0, 0.0, 0.0, 113.0, 0.0, 0.0], [0.0, 0.0, 0.0, 0.0, 113.0, 0.0], [0.0, 0.0, 0.0, 0.0, 0.0, 54.0]], 'homogeneous_poisson': 0.25, 'poisson_ratio': 0.25, 'universal_anisotropy': 0.77, 'elastic_tensor_original': [[182.36025582190507, 76.32248475022736, 89.33772442554542, 0.0, 0.0, 0.0], [73.85009802254501, 183.83931164090882, 89.2276862779023, 0.0, 0.0, 0.0], [90.75300801091792, 90.75293213828786, 200.05053512165773, 0.0, 0.0, 0.0], [0.00017419321081964083, -9.683326519406709e-06, -0.00010402992683180902, 113.27371037083833, 0.0, 0.0], [-9.645040375757994e-05, -0.00012904077372518827, 0.00012244349723417746, 0.0, 113.26558015896337, 0.0], [0.00014538311945228773, -6.510629691543469e-05, -8.675647552073209e-05, 0.0, 0.0, 53.41154417366133]], 'compliance_tensor': [[7.5, -1.8, -2.5, 0.0, 0.0, -0.0], [-1.8, 7.5, -2.5, -0.0, -0.0, -0.0], [-2.5, -2.5, 7.3, 0.0, -0.0, 0.0], [0.0, -0.0, 0.0, 8.8, -0.0, -0.0], [0.0, -0.0, -0.0, -0.0, 8.8, -0.0], [-0.0, -0.0, 0.0, -0.0, -0.0, 18.6]], 'warnings': [], 'nsites': 8}",0.0
50,mp-1823,Ti3Al,"{'Ti': 3.0, 'Al': 1.0}",0.13576534304262572,4.24886855694461,"{'G_Reuss': 60.0, 'G_VRH': 61.0, 'G_Voigt': 62.0, 'G_Voigt_Reuss_Hill': 61.0, 'K_Reuss': 115.0, 'K_VRH': 115.0, 'K_Voigt': 115.0, 'K_Voigt_Reuss_Hill': 115.0, 'elastic_anisotropy': 0.13, 'elastic_tensor': [[192.0, 85.0, 63.0, 0.0, 0.0, 0.0], [85.0, 192.0, 63.0, 0.0, 0.0, 0.0], [63.0, 63.0, 234.0, 0.0, 0.0, 0.0], [0.0, 0.0, 0.0, 60.0, 0.0, 0.0], [0.0, 0.0, 0.0, 0.0, 60.0, 0.0], [0.0, 0.0, 0.0, 0.0, 0.0, 54.0]], 'homogeneous_poisson': 0.27, 'poisson_ratio': 0.27, 'universal_anisotropy': 0.13, 'elastic_tensor_original': [[191.681682597461, 84.42452378026167, 62.68407380672456, 0.0, 0.0, -2.4059793144914736e-06], [83.63825056317431, 192.79929990812764, 62.821893199796946, 0.0, 0.0, 0.0], [62.799798855579176, 62.79978539685989, 234.15321560233932, 0.0, 0.0, 0.0], [0.0001954301025133059, -0.00021760011414286067, -0.00015224341319287202, 59.91146155008681, 0.0, 0.0], [7.790998928906911e-05, 0.00020296657357860573, 0.0001154033120424903, -1.7999977402590523e-07, 59.883106735655936, 0.0], [-0.14193523257698948, 0.08766887158361851, 0.019664705143240292, 0.0, 0.0, 52.969219676015896]], 'compliance_tensor': [[6.7, -2.6, -1.1, -0.0, -0.0, 0.0], [-2.6, 6.7, -1.1, 0.0, 0.0, 0.0], [-1.1, -1.1, 4.9, 0.0, -0.0, -0.0], [-0.0, 0.0, 0.0, 16.7, 0.0, -0.0], [0.0, 0.0, -0.0, 0.0, 16.7, -0.0], [0.0, 0.0, -0.0, -0.0, 0.0, 18.7]], 'warnings': [], 'nsites': 8}",0.0
51,mp-1907,TiTe2,"{'Ti': 1.0, 'Te': 2.0}",0.24560134002423767,5.967718130581316,"{'G_Reuss': 9.0, 'G_VRH': 12.0, 'G_Voigt': 16.0, 'G_Voigt_Reuss_Hill': 12.0, 'K_Reuss': 10.0, 'K_VRH': 18.0, 'K_Voigt': 25.0, 'K_Voigt_Reuss_Hill': 18.0, 'elastic_anisotropy': 5.07, 'elastic_tensor': [[70.0, 19.0, 9.0, -3.0, 0.0, 0.0], [19.0, 70.0, 9.0, 3.0, 0.0, 0.0], [9.0, 9.0, 10.0, 0.0, 0.0, 0.0], [-3.0, 3.0, 0.0, 8.0, 0.0, 0.0], [0.0, 0.0, 0.0, 0.0, 8.0, -3.0], [0.0, 0.0, 0.0, 0.0, -3.0, 25.0]], 'homogeneous_poisson': 0.21, 'poisson_ratio': 0.21, 'universal_anisotropy': 5.07, 'elastic_tensor_original': [[70.13841125122993, 18.097437429011897, 9.972975461080296, 4.540187047344491, 0.0, 0.0], [18.910347686601444, 70.8177702307865, 10.128816686304441, -3.2538165698208155, 0.0, 0.0], [8.451985123162082, 8.451983943623622, 10.270166347663407, 0.0, 0.0, 0.0], [2.5213601634825737, -2.902779278988637, -0.10020723126254019, 8.172597517124967, 0.0, 0.0], [3.329009734649546e-05, 8.34006176061643e-06, 3.6533394551348296e-05, 7.58345287818586e-06, 7.73896144780212, 2.524208650883513], [0.03181669053856208, -0.027313341257614254, -0.0009158501534156152, 0.018828768644498277, 2.676777137215919, 24.883336076241765]], 'compliance_tensor': [[17.2, -3.4, -12.5, 7.6, -0.0, 0.0], [-3.4, 17.2, -12.5, -7.6, 0.0, 0.0], [-12.5, -12.5, 119.8, 0.0, -0.0, -0.0], [7.6, -7.6, 0.0, 131.4, 0.0, 0.0], [0.0, 0.0, -0.0, 0.0, 131.4, 15.2], [0.0, 0.0, -0.0, 0.0, 15.2, 41.1]], 'warnings': [], 'nsites': 3}",0.0
52,mp-1949,TiMn2,"{'Ti': 1.0, 'Mn': 2.0}",0.12832829894847086,6.901373874786948,"{'G_Reuss': 60.0, 'G_VRH': 61.0, 'G_Voigt': 62.0, 'G_Voigt_Reuss_Hill': 61.0, 'K_Reuss': 210.0, 'K_VRH': 210.0, 'K_Voigt': 210.0, 'K_Voigt_Reuss_Hill': 210.0, 'elastic_anisotropy': 0.23, 'elastic_tensor': [[297.0, 197.0, 147.0, 0.0, 0.0, 0.0], [197.0, 297.0, 147.0, 0.0, 0.0, 0.0], [147.0, 147.0, 313.0, 0.0, 0.0, 0.0], [0.0, 0.0, 0.0, 62.0, 0.0, 0.0], [0.0, 0.0, 0.0, 0.0, 62.0, 0.0], [0.0, 0.0, 0.0, 0.0, 0.0, 50.0]], 'homogeneous_poisson': 0.37, 'poisson_ratio': 0.37, 'universal_anisotropy': 0.23, 'elastic_tensor_original': [[297.06328015630373, 198.21837222950137, 149.244304838546, 0.0, 0.0, 0.0], [197.7032765800433, 296.58651813753437, 149.35295253251996, 0.0, 0.0, 0.0], [144.4796174039341, 144.47963572148896, 313.01135591848725, 0.0, 0.0, 0.0], [0.10454434046716336, 0.21686848338803683, 0.1973001907532165, 61.48087498904909, 0.0, 0.0], [0.014705608609164329, 0.013087492851720312, 0.014849278425577, 0.0, 61.574873095698486, 0.0], [0.012243191911356472, 0.024258116421410205, 0.017498672156275954, 0.0, 0.0, 50.662408166403786]], 'compliance_tensor': [[6.4, -3.6, -1.3, -0.0, 0.0, 0.0], [-3.6, 6.4, -1.3, 0.0, -0.0, 0.0], [-1.3, -1.3, 4.4, 0.0, 0.0, -0.0], [-0.0, 0.0, 0.0, 16.3, 0.0, 0.0], [0.0, -0.0, 0.0, 0.0, 16.3, -0.0], [0.0, 0.0, -0.0, 0.0, -0.0, 20.0]], 'warnings': [], 'nsites': 12}",0.0
53,mp-1953,TiAl,"{'Ti': 1.0, 'Al': 1.0}",0.11955719175912623,3.8339015516249924,"{'G_Reuss': 63.0, 'G_VRH': 70.0, 'G_Voigt': 76.0, 'G_Voigt_Reuss_Hill': 70.0, 'K_Reuss': 115.0, 'K_VRH': 115.0, 'K_Voigt': 115.0, 'K_Voigt_Reuss_Hill': 115.0, 'elastic_anisotropy': 0.98, 'elastic_tensor': [[200.0, 62.0, 84.0, 0.0, 0.0, 0.0], [62.0, 200.0, 84.0, 0.0, 0.0, 0.0], [84.0, 84.0, 174.0, 0.0, 0.0, 0.0], [0.0, 0.0, 0.0, 112.0, 0.0, 0.0], [0.0, 0.0, 0.0, 0.0, 112.0, 0.0], [0.0, 0.0, 0.0, 0.0, 0.0, 41.0]], 'homogeneous_poisson': 0.25, 'poisson_ratio': 0.25, 'universal_anisotropy': 0.98, 'elastic_tensor_original': [[200.11049281056117, 62.10353330583169, 84.24808113495972, 0.0, 0.0, 0.0], [62.10358961487032, 200.11063525002348, 84.2483339904646, 0.0, 0.0, 0.0], [84.43817070839525, 84.43817070839525, 173.67873633272387, 0.0, 0.0, 0.0], [6.408332109988926e-05, 0.0001384933068949953, 2.207666245284674e-05, 111.7311014765914, 0.0, 0.0], [1.806666321962904e-05, 2.1806662503068804e-05, 8.324665077568781e-05, 0.0, 111.73110093659147, 0.0], [-2.632332755553231e-05, 8.114331551937604e-05, 7.258331740011036e-05, 0.0, 0.0, 40.87487336033949]], 'compliance_tensor': [[6.4, -0.8, -2.7, -0.0, 0.0, -0.0], [-0.8, 6.4, -2.7, 0.0, 0.0, -0.0], [-2.7, -2.7, 8.4, 0.0, 0.0, 0.0], [-0.0, 0.0, 0.0, 9.0, 0.0, -0.0], [0.0, 0.0, 0.0, 0.0, 9.0, 0.0], [-0.0, -0.0, 0.0, -0.0, 0.0, 24.5]], 'warnings': [], 'nsites': 2}",0.0
54,mp-20327,TiP2,"{'Ti': 1.0, 'P': 2.0}",0.09305754462454778,4.262085969423355,"{'G_Reuss': 89.0, 'G_VRH': 91.0, 'G_Voigt': 92.0, 'G_Voigt_Reuss_Hill': 91.0, 'K_Reuss': 130.0, 'K_VRH': 131.0, 'K_Voigt': 132.0, 'K_Voigt_Reuss_Hill': 131.0, 'elastic_anisotropy': 0.19, 'elastic_tensor': [[220.0, 68.0, 74.0, 0.0, 0.0, 0.0], [68.0, 301.0, 72.0, 0.0, 0.0, 0.0], [74.0, 72.0, 240.0, 0.0, 0.0, 0.0], [0.0, 0.0, 0.0, 70.0, 0.0, 0.0], [0.0, 0.0, 0.0, 0.0, 107.0, 0.0], [0.0, 0.0, 0.0, 0.0, 0.0, 103.0]], 'homogeneous_poisson': 0.22, 'poisson_ratio': 0.22, 'universal_anisotropy': 0.19, 'elastic_tensor_original': [[239.8752729708148, 73.34953790969413, 69.89553276578962, 0.0, 0.0, 0.0], [73.9737278648173, 219.85129325697963, 67.6756551129754, 0.0, 0.0, 0.0], [73.63728462726941, 68.06143026067532, 300.7965474488069, 0.0, 0.0, 0.0], [-1.182332011757717e-05, -5.415327280230613e-05, 5.499660519464824e-05, 103.05297624897666, 0.0, 0.0], [0.009186446106505907, 0.018576922734355544, -0.012934237818791468, 0.0, 69.5811449748374, 0.0], [6.244345737871418e-05, 7.32434231909235e-05, 7.327675865319805e-05, 0.0, 0.0, 107.21656624109592]], 'compliance_tensor': [[5.3, -0.9, -1.4, 0.0, -0.0, 0.0], [-0.9, 3.7, -0.8, 0.0, 0.0, 0.0], [-1.4, -0.8, 4.8, 0.0, -0.0, 0.0], [0.0, 0.0, 0.0, 14.4, 0.0, 0.0], [-0.0, 0.0, -0.0, 0.0, 9.3, 0.0], [0.0, 0.0, 0.0, 0.0, 0.0, 9.7]], 'warnings': [], 'nsites': 12}",0.0
55,mp-20382,Ti6Sn5,"{'Ti': 6.0, 'Sn': 5.0}",0.1281181285961661,6.8133915501839475,"{'G_Reuss': 55.0, 'G_VRH': 55.0, 'G_Voigt': 56.0, 'G_Voigt_Reuss_Hill': 55.0, 'K_Reuss': 105.0, 'K_VRH': 105.0, 'K_Voigt': 105.0, 'K_Voigt_Reuss_Hill': 105.0, 'elastic_anisotropy': 0.1, 'elastic_tensor': [[176.0, 81.0, 59.0, 0.0, 0.0, 0.0], [81.0, 176.0, 59.0, 0.0, 0.0, 0.0], [59.0, 59.0, 196.0, 0.0, 0.0, 0.0], [0.0, 0.0, 0.0, 58.0, 0.0, 0.0], [0.0, 0.0, 0.0, 0.0, 58.0, 0.0], [0.0, 0.0, 0.0, 0.0, 0.0, 48.0]], 'homogeneous_poisson': 0.28, 'poisson_ratio': 0.28, 'universal_anisotropy': 0.1, 'elastic_tensor_original': [[175.906984337831, 80.74602614691362, 59.31179508934553, 0.0, 0.0, 2.154576440742503e-06], [80.4522131050482, 176.2107375917987, 59.226317352945365, 0.0, 0.0, -1.0938733903553392e-05], [58.34857979289997, 58.348584992135294, 196.21118763171805, 0.0, 0.0, -3.6394547478546197e-06], [0.002903002604017743, -0.0068739449397373625, 0.002609619344390845, 57.75706347646688, -3.5799991006034747e-06, 3.3333324959063225e-09], [0.0022493837001484073, 0.0008258634680103695, 0.004655050759115498, 2.0000003261468213e-08, 57.71799203226827, 0.0], [0.0063393354331307775, -0.01783760265490695, 0.0011949730764530936, 0.0, 0.0, 47.669175561067846]], 'compliance_tensor': [[7.5, -3.0, -1.4, 0.0, 0.0, 0.0], [-3.0, 7.5, -1.4, -0.0, -0.0, 0.0], [-1.4, -1.4, 5.9, 0.0, 0.0, 0.0], [-0.0, -0.0, 0.0, 17.3, 0.0, -0.0], [0.0, -0.0, 0.0, 0.0, 17.3, 0.0], [0.0, 0.0, -0.0, 0.0, 0.0, 21.0]], 'warnings': [], 'nsites': 22}",0.0
56,mp-2078,TiCu,"{'Ti': 1.0, 'Cu': 1.0}",0.17049395614150234,6.4409362603173195,"{'G_Reuss': 57.0, 'G_VRH': 62.0, 'G_Voigt': 67.0, 'G_Voigt_Reuss_Hill': 62.0, 'K_Reuss': 130.0, 'K_VRH': 130.0, 'K_Voigt': 131.0, 'K_Voigt_Reuss_Hill': 130.0, 'elastic_anisotropy': 0.87, 'elastic_tensor': [[178.0, 103.0, 107.0, 0.0, 0.0, 0.0], [103.0, 178.0, 107.0, 0.0, 0.0, 0.0], [107.0, 107.0, 186.0, 0.0, 0.0, 0.0], [0.0, 0.0, 0.0, 85.0, 0.0, 0.0], [0.0, 0.0, 0.0, 0.0, 85.0, 0.0], [0.0, 0.0, 0.0, 0.0, 0.0, 89.0]], 'homogeneous_poisson': 0.3, 'poisson_ratio': 0.3, 'universal_anisotropy': 0.87, 'elastic_tensor_original': [[177.96943006002917, 102.71724504804956, 106.82993514613628, 0.0, 0.0, 0.0], [102.72188169176368, 177.97831164151398, 106.83610634862126, 0.0, 0.0, 0.0], [106.97467201746902, 106.97467201746902, 186.05776028188245, 0.0, 0.0, 0.0], [-0.0004049353573349182, -0.0003926619120067038, -0.0002380445783207566, 84.5705965874747, 0.0, 0.0], [-0.00037193746959764, -0.0005204100477821616, -0.0003511502287472807, 0.0, 84.57051534875015, 0.0], [0.00015982614013905993, 3.284905293858089e-05, -9.982670631731615e-05, 0.0, 0.0, 88.65528068264065]], 'compliance_tensor': [[9.8, -3.5, -3.6, -0.0, 0.0, -0.0], [-3.5, 9.8, -3.6, 0.0, 0.0, -0.0], [-3.6, -3.6, 9.6, -0.0, 0.0, 0.0], [-0.0, 0.0, -0.0, 11.8, 0.0, -0.0], [0.0, 0.0, 0.0, 0.0, 11.8, 0.0], [-0.0, -0.0, 0.0, -0.0, 0.0, 11.3]], 'warnings': [], 'nsites': 4}",0.0
57,mp-20847,Ti5Sn3,"{'Ti': 5.0, 'Sn': 3.0}",0.13076198828624291,6.425214777223388,"{'G_Reuss': 46.0, 'G_VRH': 49.0, 'G_Voigt': 51.0, 'G_Voigt_Reuss_Hill': 49.0, 'K_Reuss': 106.0, 'K_VRH': 107.0, 'K_Voigt': 107.0, 'K_Voigt_Reuss_Hill': 107.0, 'elastic_anisotropy': 0.52, 'elastic_tensor': [[184.0, 108.0, 44.0, 0.0, 0.0, 0.0], [108.0, 184.0, 44.0, 0.0, 0.0, 0.0], [44.0, 44.0, 205.0, 0.0, 0.0, 0.0], [0.0, 0.0, 0.0, 45.0, 0.0, 0.0], [0.0, 0.0, 0.0, 0.0, 45.0, 0.0], [0.0, 0.0, 0.0, 0.0, 0.0, 38.0]], 'homogeneous_poisson': 0.3, 'poisson_ratio': 0.3, 'universal_anisotropy': 0.52, 'elastic_tensor_original': [[183.63095986395243, 108.78024750785659, 43.49052501784469, 0.0, 0.0, 0.0], [108.00162183332829, 185.3532505055778, 44.18072780710769, 0.0, 0.0, 0.0], [43.53612681753097, 43.53612561753899, 204.5612229502987, 0.0, 0.0, 0.0], [-0.004315513705658954, 0.002878153581648626, 0.011793657684172463, 45.290675864149534, 0.0, 0.0], [-0.015097792500572823, 0.05094304128932817, 0.004673957760674411, 0.0, 45.03081474903105, 0.0], [0.004042469939458325, 0.0024414610789910375, 0.004864439431352158, 0.0, 0.0, 38.021196215131454]], 'compliance_tensor': [[8.4, -4.7, -0.8, 0.0, -0.0, -0.0], [-4.7, 8.4, -0.8, -0.0, 0.0, -0.0], [-0.8, -0.8, 5.2, 0.0, 0.0, 0.0], [0.0, -0.0, 0.0, 22.1, -0.0, 0.0], [-0.0, 0.0, 0.0, -0.0, 22.1, 0.0], [-0.0, -0.0, 0.0, 0.0, 0.0, 26.3]], 'warnings': [], 'nsites': 16}",0.0
58,mp-2108,Ti5Si3,"{'Ti': 5.0, 'Si': 3.0}",0.12067629696043301,4.347039336035789,"{'G_Reuss': 94.0, 'G_VRH': 94.0, 'G_Voigt': 95.0, 'G_Voigt_Reuss_Hill': 94.0, 'K_Reuss': 138.0, 'K_VRH': 139.0, 'K_Voigt': 140.0, 'K_Voigt_Reuss_Hill': 139.0, 'elastic_anisotropy': 0.1, 'elastic_tensor': [[281.0, 110.0, 52.0, 0.0, 0.0, 0.0], [110.0, 281.0, 52.0, 0.0, 0.0, 0.0], [52.0, 52.0, 267.0, 0.0, 0.0, 0.0], [0.0, 0.0, 0.0, 93.0, 0.0, 0.0], [0.0, 0.0, 0.0, 0.0, 93.0, 0.0], [0.0, 0.0, 0.0, 0.0, 0.0, 86.0]], 'homogeneous_poisson': 0.22, 'poisson_ratio': 0.22, 'universal_anisotropy': 0.1, 'elastic_tensor_original': [[280.675860223992, 110.41049073525598, 52.6145068276515, 0.0, 0.0, -1.7512827076570277e-06], [110.56947728350723, 280.80676610339066, 52.515623322754955, 0.0, 0.0, 2.173823249014029e-05], [51.929102645092996, 51.92910852516443, 266.5145696266188, 0.0, 0.0, 4.020030352414093e-06], [-0.023921404480657635, 0.01991243374819928, 0.002046168672519822, 92.74341678809108, 7.159995354853889e-06, 0.0], [0.009947946128196904, 0.008326457302614278, 0.00880589362203345, 6.666661838110864e-09, 92.73761084164205, 0.0], [-0.004990693688228531, -0.001599981031351466, 0.002267788731141734, 0.0, 0.0, 85.94164809471589]], 'compliance_tensor': [[4.3, -1.6, -0.5, 0.0, 0.0, 0.0], [-1.6, 4.3, -0.5, -0.0, 0.0, 0.0], [-0.5, -0.5, 4.0, -0.0, 0.0, -0.0], [0.0, 0.0, -0.0, 10.8, 0.0, 0.0], [0.0, 0.0, 0.0, 0.0, 10.8, 0.0], [0.0, 0.0, -0.0, 0.0, 0.0, 11.7]], 'warnings': [], 'nsites': 16}",0.0
59,mp-21289,TiZn3,"{'Ti': 1.0, 'Zn': 3.0}",0.18426369812102286,6.697660334904412,"{'G_Reuss': 3.0, 'G_VRH': 24.0, 'G_Voigt': 45.0, 'G_Voigt_Reuss_Hill': 24.0, 'K_Reuss': 96.0, 'K_VRH': 96.0, 'K_Voigt': 96.0, 'K_Voigt_Reuss_Hill': 96.0, 'elastic_anisotropy': 72.59, 'elastic_tensor': [[97.0, 95.0, 95.0, 0.0, 0.0, 0.0], [95.0, 97.0, 95.0, 0.0, 0.0, 0.0], [95.0, 95.0, 97.0, 0.0, 0.0, 0.0], [0.0, 0.0, 0.0, 75.0, 0.0, 0.0], [0.0, 0.0, 0.0, 0.0, 75.0, 0.0], [0.0, 0.0, 0.0, 0.0, 0.0, 75.0]], 'homogeneous_poisson': 0.38, 'poisson_ratio': 0.38, 'universal_anisotropy': 72.59, 'elastic_tensor_original': [[97.44460939289678, 95.0569850401036, 95.0569850401036, 0.0, 0.0, 0.0], [95.10060050639972, 97.48760049743748, 95.10060050639972, 0.0, 0.0, 0.0], [95.08545961019499, 95.08545961019499, 97.47240622375638, 0.0, 0.0, 0.0], [-0.00118410242853983, -0.001357732295865703, -0.0009138059684118962, 74.57160070185729, 0.0, 0.0], [6.886328071444845e-05, 6.37266179720236e-05, 3.547663955784779e-05, 0.0, 74.57157129521309, 0.0], [-0.002634691320119659, -0.0027619412228860676, -0.0027461979015816597, 0.0, 0.0, 74.57152819191269]], 'compliance_tensor': [[280.4, -138.5, -138.5, 0.0, 0.0, 0.0], [-138.5, 280.4, -138.5, -0.0, 0.0, -0.0], [-138.5, -138.5, 280.4, -0.0, 0.0, -0.0], [0.0, -0.0, -0.0, 13.4, 0.0, 0.0], [0.0, 0.0, 0.0, 0.0, 13.4, 0.0], [0.0, -0.0, -0.0, 0.0, 0.0, 13.4]], 'warnings': ['c11 and c12 are within 5% or c12 is greater than c11', 'c11 and c13 are within 5% or c13 is greater than c11', 'c11 and c23 are within 5% or c23 is greater than c11'], 'nsites': 4}",0.0
60,mp-2179,TiRe,"{'Ti': 1.0, 'Re': 1.0}",0.13524886781535064,12.813423301491598,"{'G_Reuss': 70.0, 'G_VRH': 71.0, 'G_Voigt': 73.0, 'G_Voigt_Reuss_Hill': 71.0, 'K_Reuss': 232.0, 'K_VRH': 232.0, 'K_Voigt': 232.0, 'K_Voigt_Reuss_Hill': 232.0, 'elastic_anisotropy': 0.2, 'elastic_tensor': [[353.0, 171.0, 171.0, 0.0, 0.0, 0.0], [171.0, 353.0, 171.0, 0.0, 0.0, 0.0], [171.0, 171.0, 353.0, 0.0, 0.0, 0.0], [0.0, 0.0, 0.0, 61.0, 0.0, 0.0], [0.0, 0.0, 0.0, 0.0, 61.0, 0.0], [0.0, 0.0, 0.0, 0.0, 0.0, 61.0]], 'homogeneous_poisson': 0.36, 'poisson_ratio': 0.36, 'universal_anisotropy': 0.2, 'elastic_tensor_original': [[353.1025449997651, 171.19641944096082, 171.19641944096082, 0.0, 0.0, 0.0], [171.15710245317692, 353.0574111475569, 171.15710245317692, 0.0, 0.0, 0.0], [171.11778546539313, 171.11778546539313, 353.0122772953491, 0.0, 0.0, 0.0], [0.0, 0.0, 0.0, 60.63082191809344, 0.0, 0.0], [0.0, 0.0, 0.0, 0.0, 60.63082191809343, 0.0], [0.0, 0.0, 0.0, 0.0, 0.0, 60.63082191809343]], 'compliance_tensor': [[4.1, -1.4, -1.4, 0.0, 0.0, 0.0], [-1.4, 4.1, -1.4, 0.0, 0.0, 0.0], [-1.4, -1.4, 4.1, 0.0, 0.0, 0.0], [0.0, 0.0, 0.0, 16.5, 0.0, 0.0], [0.0, 0.0, 0.0, 0.0, 16.5, 0.0], [0.0, 0.0, 0.0, 0.0, 0.0, 16.5]], 'warnings': [], 'nsites': 2}",0.0