,mp_id,Formula,Composition,IPF,Density,Elastic_Tensor,E_above_Hull
910,mp-6440,CaTiSiO5,"{'Ca': 1.0, 'Ti': 1.0, 'Si': 1.0, 'O': 5.0}",0.539587381853317,3.420560206440672,,0.11884937500106219
911,mp-6488,KTiAsO5,"{'K': 1.0, 'Ti': 1.0, 'As': 1.0, 'O': 5.0}",0.4958267250276829,3.2973449582909904,,0.0
912,mp-667369,Ca2Zr5Ti2O16,"{'Ca': 2.0, 'Zr': 5.0, 'Ti': 2.0, 'O': 16.0}",0.54174899843541,4.842195372880034,,0.0
913,mp-6761,NaTi2(PO4)3,"{'Na': 1.0, 'Ti': 2.0, 'P': 3.0, 'O': 12.0}",0.48454638348695606,2.8400417716840307,,0.0
914,mp-680756,Na4TiP2O9,"{'Na': 4.0, 'Ti': 1.0, 'P': 2.0, 'O': 9.0}",0.4984681675342844,2.7116032882181935,,0.0
915,mp-695042,Sr9LaTi10O30,"{'Sr': 9.0, 'La': 1.0, 'Ti': 10.0, 'O': 30.0}",0.6032608033697818,5.096876497185289,,0.0
916,mp-709021,CaTi2(HO3)2,"{'Ca': 1.0, 'Ti': 2.0, 'H': 2.0, 'O': 6.0}",0.512138351786614,3.2251546828441775,,0.0
917,mp-756275,LiTiCrO4,"{'Li': 1.0, 'Ti': 1.0, 'Cr': 1.0, 'O': 4.0}",0.5684487037022061,3.7813421788132215,,0.0
918,mp-762240,K2Li2TiO4,"{'K': 2.0, 'Li': 2.0, 'Ti': 1.0, 'O': 4.0}",0.5399890270147293,2.552916305830258,,0.0
919,mp-773060,Ba6Ta9Ti7O42,"{'Ba': 6.0, 'Ta': 9.0, 'Ti': 7.0, 'O': 42.0}",0.5441820110821339,6.595808074446452,,0.0
920,mp-998980,TiAlFeCo,"{'Ti': 1.0, 'Al': 1.0, 'Fe': 1.0, 'Co': 1.0}",0.1707558408601182,6.423142027062664,"{'G_Reuss': 127.0, 'G_VRH': 127.0, 'G_Voigt': 127.0, 'G_Voigt_Reuss_Hill': 127.0, 'K_Reuss': 175.0, 'K_VRH': 175.0, 'K_Voigt': 175.0, 'K_Voigt_Reuss_Hill': 175.0, 'elastic_anisotropy': 0.01, 'elastic_tensor': [[355.0, 85.0, 85.0, 0.0, 0.0, 0.0], [85.0, 355.0, 85.0, 0.0, 0.0, 0.0], [85.0, 85.0, 355.0, 0.0, 0.0, 0.0], [0.0, 0.0, 0.0, 122.0, 0.0, 0.0], [0.0, 0.0, 0.0, 0.0, 122.0, 0.0], [0.0, 0.0, 0.0, 0.0, 0.0, 122.0]], 'homogeneous_poisson': 0.21, 'poisson_ratio': 0.21, 'universal_anisotropy': 0.01, 'elastic_tensor_original': [[354.73151078367266, 85.14902128274706, 85.14902128274706, 0.0, 0.0, 0.0], [85.14902128274706, 354.73151078367266, 85.14902128274706, 0.0, 0.0, 0.0], [85.14902128274706, 85.14902128274706, 354.73151078367266, 0.0, 0.0, 0.0], [0.0, 0.0, 0.0, 122.2514391925068, 0.0, 0.0], [0.0, 0.0, 0.0, 0.0, 122.2514391925068, 0.0], [0.0, 0.0, 0.0, 0.0, 0.0, 122.2514391925068]], 'compliance_tensor': [[3.1, -0.6, -0.6, 0.0, -0.0, 0.0], [-0.6, 3.1, -0.6, -0.0, 0.0, -0.0], [-0.6, -0.6, 3.1, -0.0, -0.0, 0.0], [0.0, -0.0, -0.0, 8.2, 0.0, -0.0], [-0.0, 0.0, -0.0, 0.0, 8.2, -0.0], [0.0, -0.0, 0.0, -0.0, -0.0, 8.2]], 'warnings': [], 'nsites': 4}",0.0
921,mvc-9241,CaPrTi2O6,"{'Ca': 1.0, 'Pr': 1.0, 'Ti': 2.0, 'O': 6.0}",0.5568211528606617,5.171014925233066,,0.0
922,mp-1114704,Rb2LiTiF6,"{'Rb': 2.0, 'Li': 1.0, 'Ti': 1.0, 'F': 6.0}",0.3567046716965419,3.8134253504399287,,0.0
923,mp-1189965,TiH8(NF3)2,"{'Ti': 1.0, 'H': 8.0, 'N': 2.0, 'F': 6.0}",0.08767309533414702,2.136278120838333,,0.0
924,mp-1191111,SrTi(PO4)2,"{'Sr': 1.0, 'Ti': 1.0, 'P': 2.0, 'O': 8.0}",0.5018515443315527,3.3626675903406356,,0.0
925,mp-1195388,Cs2TiCu3F12,"{'Cs': 2.0, 'Ti': 1.0, 'Cu': 3.0, 'F': 12.0}",0.25590211741635516,4.051473693020015,,0.0
926,mp-1203774,Rb2TiV3(PO6)3,"{'Rb': 2.0, 'Ti': 1.0, 'V': 3.0, 'P': 3.0, 'O': 18.0}",0.5033979330489456,3.1495133387904652,,0.0
927,mp-1203799,TiPb(S2O7)3,"{'Ti': 1.0, 'Pb': 1.0, 'S': 6.0, 'O': 21.0}",0.46845552296677334,3.0229552953103527,,0.0
928,mp-1208411,Ti3TlSi2P6O25,"{'Ti': 3.0, 'Tl': 1.0, 'Si': 2.0, 'P': 6.0, 'O': 25.0}",0.44300273522096656,3.130221607005314,,0.0
929,mp-1208997,Sc2TiB2Ir5,"{'Sc': 2.0, 'Ti': 1.0, 'B': 2.0, 'Ir': 5.0}",0.13210476918278527,13.395949783744584,,0.0
930,mp-1211941,K2TiZnO4,"{'K': 2.0, 'Ti': 1.0, 'Zn': 1.0, 'O': 4.0}",0.510000988716371,3.163998044608015,,0.0
931,mp-1212080,HoTiClO3,"{'Ho': 1.0, 'Ti': 1.0, 'Cl': 1.0, 'O': 3.0}",0.37866700958988897,5.409051928924672,,0.0
932,mp-1212930,ErTiClO3,"{'Er': 1.0, 'Ti': 1.0, 'Cl': 1.0, 'O': 3.0}",0.3788280295106417,5.477462900477575,,0.0
933,mp-1216271,Y3ErTi4(SiO9)2,"{'Y': 3.0, 'Er': 1.0, 'Ti': 4.0, 'Si': 2.0, 'O': 18.0}",0.5327408339858857,4.733525853498166,,0.0
934,mp-1216715,TiNb3(AlC)2,"{'Ti': 1.0, 'Nb': 3.0, 'Al': 2.0, 'C': 2.0}",0.10555421116785317,5.756306021559643,,0.0
935,mp-1216909,TiNbTlO5,"{'Ti': 1.0, 'Nb': 1.0, 'Tl': 1.0, 'O': 5.0}",0.4713616144390752,5.868684096395717,,0.0
936,mp-1216939,TiTeO3F2,"{'Ti': 1.0, 'Te': 1.0, 'O': 3.0, 'F': 2.0}",0.379027492674508,4.142778396216208,,0.0
937,mp-1217120,Ti2FeNiSb2,"{'Ti': 2.0, 'Fe': 1.0, 'Ni': 1.0, 'Sb': 2.0}",0.13664345752686718,7.221651501682221,,0.0
938,mp-1220022,Rb2YbTi(PO4)3,"{'Rb': 2.0, 'Yb': 1.0, 'Ti': 1.0, 'P': 3.0, 'O': 12.0}",0.5340160103685948,4.030735129614505,,0.8129396929748012
939,mp-1220084,NdTiCdSbO7,"{'Nd': 1.0, 'Ti': 1.0, 'Cd': 1.0, 'Sb': 1.0, 'O': 7.0}",0.5502819132810336,6.324183038398363,,0.9438543181730097
940,mp-1220901,NaSm3Ti2(SbO7)2,"{'Na': 1.0, 'Sm': 3.0, 'Ti': 2.0, 'Sb': 2.0, 'O': 14.0}",0.5558559304022773,6.093090465806648,,0.0
941,mp-1223394,KTaTiO5,"{'K': 1.0, 'Ta': 1.0, 'Ti': 1.0, 'O': 5.0}",0.5227823148774738,4.910657047175854,,0.959035937500019
942,mp-1223774,K7RbTi8(PO5)8,"{'K': 7.0, 'Rb': 1.0, 'Ti': 8.0, 'P': 8.0, 'O': 40.0}",0.5359941927771604,2.9998213927884128,,0.0941784960968306
943,mp-1224654,GdTiNbBi2O9,"{'Gd': 1.0, 'Ti': 1.0, 'Nb': 1.0, 'Bi': 2.0, 'O': 9.0}",0.5009816281610786,7.5464497289610435,,0.0
944,mp-1226157,Cs2Ti(WO4)3,"{'Cs': 2.0, 'Ti': 1.0, 'W': 3.0, 'O': 12.0}",0.5574645171604845,6.17522893763783,,0.0
945,mp-1227002,CeTiNbO6,"{'Ce': 1.0, 'Ti': 1.0, 'Nb': 1.0, 'O': 6.0}",0.5345385341438306,5.53414328541513,,0.0
946,mp-1227163,CaZrTi2O7,"{'Ca': 1.0, 'Zr': 1.0, 'Ti': 2.0, 'O': 7.0}",0.5549862660939182,4.297743460847603,,0.0
947,mp-1228489,Ba3Ta4Ti4O21,"{'Ba': 3.0, 'Ta': 4.0, 'Ti': 4.0, 'O': 21.0}",0.5497464951415866,6.403175755133556,,0.0
948,mp-1239442,CaTiCr(PO4)3,"{'Ca': 1.0, 'Ti': 1.0, 'Cr': 1.0, 'P': 3.0, 'O': 12.0}",0.48660264833980815,2.987407744704733,,0.0
949,mp-1244721,CaTiMo(PO4)3,"{'Ca': 1.0, 'Ti': 1.0, 'Mo': 1.0, 'P': 3.0, 'O': 12.0}",0.45804547558883535,3.1448004266928136,,0.0
950,mp-16000,Cs5Ti6AgSe27,"{'Cs': 5.0, 'Ti': 6.0, 'Ag': 1.0, 'Se': 27.0}",0.21611988222971742,4.358706355218539,,0.0
951,mp-16831,CaTi4(PO4)6,"{'Ca': 1.0, 'Ti': 4.0, 'P': 6.0, 'O': 24.0}",0.47433639370178493,2.8453517542315336,,0.0
952,mp-18082,Sm3Ti3(SeO4)2,"{'Sm': 3.0, 'Ti': 3.0, 'Se': 2.0, 'O': 8.0}",0.4394502145829374,6.014497518693832,,0.0
953,mp-18271,Na5Ti2Si2PO13,"{'Na': 5.0, 'Ti': 2.0, 'Si': 2.0, 'P': 1.0, 'O': 13.0}",0.5297048463426207,2.9897989893970323,,0.0
954,mp-18582,Rb2Ti(Si2O5)3,"{'Rb': 2.0, 'Ti': 1.0, 'Si': 6.0, 'O': 15.0}",0.47411381303925776,2.895674409741945,,0.0
955,mp-39159,CaLaTiCrO6,"{'Ca': 1.0, 'La': 1.0, 'Ti': 1.0, 'Cr': 1.0, 'O': 6.0}",0.5837414313903027,5.2437643496864705,,0.0
956,mp-39419,NdTiCdSbO7,"{'Nd': 1.0, 'Ti': 1.0, 'Cd': 1.0, 'Sb': 1.0, 'O': 7.0}",0.5480477238288177,6.298506339424149,,0.0
957,mp-40478,NaDy3Ti2(SbO7)2,"{'Na': 1.0, 'Dy': 3.0, 'Ti': 2.0, 'Sb': 2.0, 'O': 14.0}",0.5531481650205254,6.48884058238291,,0.0
958,mp-40484,NaNd3Ti2(SbO7)2,"{'Na': 1.0, 'Nd': 3.0, 'Ti': 2.0, 'Sb': 2.0, 'O': 14.0}",0.5566488939024211,5.888495686300879,,0.40399818181668934
959,mp-505405,TiMnH12(OF)6,"{'Ti': 1.0, 'Mn': 1.0, 'H': 12.0, 'O': 6.0, 'F': 6.0}",0.22011338004128234,1.890579240743091,,0.0
960,mp-532617,Rb16Yb3Ti13(PO4)24,"{'O': 96.0, 'P': 24.0, 'Rb': 16.0, 'Ti': 13.0, 'Yb': 3.0}",0.5611049465087513,3.789323137756736,,0.0
961,mp-541318,CsTi3Si2P6O25,"{'Cs': 1.0, 'Ti': 3.0, 'Si': 2.0, 'P': 6.0, 'O': 25.0}",0.4664146688180175,2.8733328272766636,,0.0
962,mp-555420,NaLiTi3O7,"{'Na': 1.0, 'Li': 1.0, 'Ti': 3.0, 'O': 7.0}",0.5587731872950921,3.4855304648987864,,0.0
963,mp-555781,Ba6Ti5S15O,"{'Ba': 6.0, 'Ti': 5.0, 'S': 15.0, 'O': 1.0}",0.22903058473438687,4.029203162748764,,0.0
964,mp-556185,RbNaTiO3,"{'Rb': 1.0, 'Na': 1.0, 'Ti': 1.0, 'O': 3.0}",0.5750426424867943,3.6519824896029696,,0.0
965,mp-557301,K2Ti(Si2O5)3,"{'K': 2.0, 'Ti': 1.0, 'Si': 6.0, 'O': 15.0}",0.4784693968102331,2.6273771418472336,,0.0
966,mp-560767,KNaTiO3,"{'K': 1.0, 'Na': 1.0, 'Ti': 1.0, 'O': 3.0}",0.5512551762515505,2.95235584882722,"{'G_Reuss': 18.0, 'G_VRH': 26.0, 'G_Voigt': 33.0, 'G_Voigt_Reuss_Hill': 26.0, 'K_Reuss': 51.0, 'K_VRH': 56.0, 'K_Voigt': 60.0, 'K_Voigt_Reuss_Hill': 56.0, 'elastic_anisotropy': 4.12, 'elastic_tensor': [[116.0, 30.0, 9.0, 0.0, -20.0, 0.0], [30.0, 88.0, 36.0, 0.0, 0.0, 0.0], [9.0, 36.0, 181.0, 0.0, -1.0, 0.0], [0.0, 0.0, 0.0, 31.0, 0.0, -10.0], [-20.0, 0.0, -1.0, 0.0, 13.0, 0.0], [0.0, 0.0, 0.0, -10.0, 0.0, 16.0]], 'homogeneous_poisson': 0.3, 'poisson_ratio': 0.3, 'universal_anisotropy': 4.12, 'elastic_tensor_original': [[115.78413975833517, 31.685296416695472, -0.5371888030040204, 3.999982151636291e-06, -23.415244718582784, -1.6999924144454237e-05], [28.365533971095566, 87.6460295809497, 29.52798096068405, -2.0000275106023303e-07, 1.2175397473955405, 3.000041265903495e-06], [19.746197589206165, 42.52243215235953, 181.44708823495517, -4.000020295495183e-07, 2.543493105297537, 4.000020295495183e-07], [-1.901400839401818e-06, 3.6457780637939524e-06, 5.620921528391523e-06, 31.28761846329798, 1.8972797168627178e-06, -10.47892706121178], [-17.50346794466925, -0.3800741410752481, -3.549430866070793, -2.400018571732337e-06, 13.606515989423999, 3.0000232146654217e-06], [2.956714289426287e-06, -5.625881544091445e-06, -1.577788881224434e-06, -8.782412449579777, 6.66936764072436e-07, 16.29494233403485]], 'compliance_tensor': [[13.346726278442242, -4.814033424561661, 0.36524909722122206, 2.767838462772488e-06, 20.173954732815048, 5.34285843638651e-06], [-4.814033424561662, 14.163954405098632, -2.602344773746788, -2.5527005842345508e-06, -7.820968262998093, 2.319867747963742e-06], [0.3652490972212226, -2.6023447737467893, 6.014757824130407, -3.0647758364745602e-06, 1.0529166716816305, -2.5171740609196535e-06], [2.7678384627724834e-06, -2.5527005842345482e-06, -3.0647758364745615e-06, 39.215215864923536, 2.5300564774746804e-06, 23.203695013638047], [20.17395473281504, -7.8209682629980914, 1.0529166716816294, 2.53005647747469e-06, 104.71406360382748, -6.127444812002804e-06], [5.3428584363864974e-06, 2.3198677479637486e-06, -2.5171740609196535e-06, 23.203695013638047, -6.127444812002827e-06, 74.86971981828403]], 'warnings': [], 'nsites': 12}",0.0
967,mp-6109,CaTiSiO5,"{'Ca': 1.0, 'Ti': 1.0, 'Si': 1.0, 'O': 5.0}",0.5389412197120201,3.4164640459636857,,0.0
968,mp-6125,RbTi2(PO4)3,"{'Rb': 1.0, 'Ti': 2.0, 'P': 3.0, 'O': 12.0}",0.5189479680850094,3.163320776062898,,0.0
969,mp-6178,Cs2KTiF6,"{'Cs': 2.0, 'K': 1.0, 'Ti': 1.0, 'F': 6.0}",0.3827921235243972,3.9151633204491088,"{'G_Reuss': -13.0, 'G_VRH': -13.0, 'G_Voigt': -13.0, 'G_Voigt_Reuss_Hill': -13.0, 'K_Reuss': 17.0, 'K_VRH': 17.0, 'K_Voigt': 17.0, 'K_Voigt_Reuss_Hill': 17.0, 'elastic_anisotropy': 0.0, 'elastic_tensor': [[-1.0, 26.0, 26.0, 0.0, 0.0, 0.0], [26.0, -1.0, 26.0, 0.0, 0.0, 0.0], [26.0, 26.0, -1.0, 0.0, 0.0, 0.0], [0.0, 0.0, 0.0, -13.0, 0.0, 0.0], [0.0, 0.0, 0.0, 0.0, -13.0, 0.0], [0.0, 0.0, 0.0, 0.0, 0.0, -13.0]], 'homogeneous_poisson': 1.01, 'poisson_ratio': 1.01, 'universal_anisotropy': 0.0, 'elastic_tensor_original': [[-0.6246774534641956, 25.634533644984167, 25.634533644984167, 0.0, 0.0, 0.0], [25.634533644984167, -0.6246774534641956, 25.634533644984167, 0.0, 0.0, 0.0], [25.634533644984167, 25.634533644984167, -0.6246774534641956, 0.0, 0.0, 0.0], [0.0, 0.0, 0.0, -12.551022935625213, 0.0, 0.0], [0.0, 0.0, 0.0, 0.0, -12.551022935625213, 0.0], [0.0, 0.0, 0.0, 0.0, 0.0, -12.551022935625213]], 'compliance_tensor': [[-18.80607556777518, 19.2757996359734, 19.275799635973396, 9.638238731706849e-16, -9.842262658787785e-16, 4.388942200297095e-17], [19.275799635973396, -18.806075567775185, 19.275799635973407, -9.842262658787783e-16, 9.63823873170685e-16, -4.388942200297097e-17], [19.2757996359734, 19.275799635973396, -18.80607556777518, -9.842262658787785e-16, -9.842262658787783e-16, -5.39455778561319e-32], [9.63823873170685e-16, -9.842262658787785e-16, -9.842262658787785e-16, -79.67478070345712, -1.6642918866310206e-32, -1.991939561052435e-15], [-9.842262658787785e-16, 9.63823873170685e-16, -9.842262658787787e-16, -1.6642918866310206e-32, -79.67478070345712, -1.991939561052435e-15], [4.388942200297096e-17, -4.3889422002970966e-17, -5.336903161484592e-32, -1.991939561052435e-15, -1.991939561052435e-15, -79.67478070345712]], 'warnings': ['Elastic tensor has a negative eigenvalue', 'c11 and c12 are within 5% or c12 is greater than c11', 'c11 and c13 are within 5% or c13 is greater than c11', 'c11 and c23 are within 5% or c23 is greater than c11', 'One or more K, G below 2 GPa'], 'nsites': 10}",0.0
970,mp-6228,Na2TiGeO5,"{'Na': 2.0, 'Ti': 1.0, 'Ge': 1.0, 'O': 5.0}",0.5030642257072838,3.462152599179378,,0.0
971,mp-662600,La20Ti11(S22O3)2,"{'La': 20.0, 'Ti': 11.0, 'S': 44.0, 'O': 6.0}",0.19656422127036513,4.629916505719489,,0.0
972,mp-6661,BaTi(SiO3)3,"{'Ba': 1.0, 'Ti': 1.0, 'Si': 3.0, 'O': 9.0}",0.4841190970505159,3.5420446788145106,,0.0
973,mp-676448,CsTiZnOF5,"{'Cs': 1.0, 'Ti': 1.0, 'Zn': 1.0, 'O': 1.0, 'F': 5.0}",0.3142693134710898,4.052148151020538,,0.0
974,mp-677212,Ba3LiTa3Ti5O21,"{'Ba': 3.0, 'Li': 1.0, 'Ta': 3.0, 'Ti': 5.0, 'O': 21.0}",0.5587225559046702,5.930844354992933,,0.41054816287200424
975,mp-690560,TiTlWO5F,"{'Ti': 1.0, 'Tl': 1.0, 'W': 1.0, 'O': 5.0, 'F': 1.0}",0.4089942457705127,6.292805468174506,,0.0
976,mp-758597,K2TiSi3(HO5)2,"{'K': 2.0, 'Ti': 1.0, 'Si': 3.0, 'H': 2.0, 'O': 10.0}",0.49450800267298356,2.59588180376046,,0.0
977,mp-774535,TiNb3(PO4)6,"{'Ti': 1.0, 'Nb': 3.0, 'P': 6.0, 'O': 24.0}",0.43261429103005755,2.9979855778660283,,0.0
978,mp-1078216,Sr2Ti2Bi2OF2,"{'Sr': 2.0, 'Ti': 2.0, 'Bi': 2.0, 'O': 1.0, 'F': 2.0}",0.23995157487345847,6.57144435244242,,0.0
979,mp-1079717,Sr2Ti2Sb2OF2,"{'Sr': 2.0, 'Ti': 2.0, 'Sb': 2.0, 'O': 1.0, 'F': 2.0}",0.22450231976455925,5.226619077895422,,0.0
980,mp-1079747,Sr2Ti2As2OF2,"{'Sr': 2.0, 'Ti': 2.0, 'As': 2.0, 'O': 1.0, 'F': 2.0}",0.23479385635037675,4.850378297414483,,0.0
981,mp-1195143,BaTiCu4P4O17,"{'Ba': 1.0, 'Ti': 1.0, 'Cu': 4.0, 'P': 4.0, 'O': 17.0}",0.4997944712654131,4.055854673196412,,0.43580157406886144
982,mp-1197745,CsTi2P3(O5F2)2,"{'Cs': 1.0, 'Ti': 2.0, 'P': 3.0, 'O': 10.0, 'F': 4.0}",0.374333265008688,2.84616782952068,,0.0
983,mp-1209312,RbTi3Si2P6O25,"{'Rb': 1.0, 'Ti': 3.0, 'Si': 2.0, 'P': 6.0, 'O': 25.0}",0.46054414136019545,2.7537891892055293,,0.0
984,mp-1209409,RbNaTi2(PO5)2,"{'Rb': 1.0, 'Na': 1.0, 'Ti': 2.0, 'P': 2.0, 'O': 10.0}",0.52180460531653,3.1814210499583875,,0.0
985,mp-1211611,KNaTi2(PO5)2,"{'K': 1.0, 'Na': 1.0, 'Ti': 2.0, 'P': 2.0, 'O': 10.0}",0.506673388767169,2.862800060727805,,0.0
986,mp-1211716,K2TiGe(PO5)2,"{'K': 2.0, 'Ti': 1.0, 'Ge': 1.0, 'P': 2.0, 'O': 10.0}",0.5486252390447673,3.2174217992370897,,0.0
987,mp-1219659,Rb3Ti4Tl(PO5)4,"{'Rb': 3.0, 'Ti': 4.0, 'Tl': 1.0, 'P': 4.0, 'O': 20.0}",0.5377967555579749,3.945312603902965,,0.19473097656153016
988,mp-1219683,Rb3Ti4Tl(PO5)4,"{'Rb': 3.0, 'Ti': 4.0, 'Tl': 1.0, 'P': 4.0, 'O': 20.0}",0.5379539662034771,3.946465911606586,,0.3319062890625446
989,mp-1221380,Na3EuTi2Nb2O12,"{'Na': 3.0, 'Eu': 1.0, 'Ti': 2.0, 'Nb': 2.0, 'O': 12.0}",0.5698263821395504,4.790572496087118,,0.0
990,mp-1224290,K4TiSn3(PO5)4,"{'K': 4.0, 'Ti': 1.0, 'Sn': 3.0, 'P': 4.0, 'O': 20.0}",0.5026457418881956,3.50746362160608,,0.0
991,mp-1224534,K4BaTi6S20O,"{'K': 4.0, 'Ba': 1.0, 'Ti': 6.0, 'S': 20.0, 'O': 1.0}",0.21107430300922847,2.823769051031198,,0.3990989648432475
992,mp-1224537,GdTiCdSbO7,"{'Gd': 1.0, 'Ti': 1.0, 'Cd': 1.0, 'Sb': 1.0, 'O': 7.0}",0.5341215047204148,6.583844207257152,,0.0
993,mp-1227317,Ca4Ti4Si3GeO20,"{'Ca': 4.0, 'Ti': 4.0, 'Si': 3.0, 'Ge': 1.0, 'O': 20.0}",0.5347619067298255,3.560876207787957,,0.9633134374933405
994,mp-1228270,Ba4TiSi12(SnO12)3,"{'Ba': 4.0, 'Ti': 1.0, 'Si': 12.0, 'Sn': 3.0, 'O': 36.0}",0.4686343995450123,3.8753464404895546,,0.8552799107111042
995,mp-1244678,CaTiV(PO4)3,"{'Ca': 1.0, 'Ti': 1.0, 'V': 1.0, 'P': 3.0, 'O': 12.0}",0.4762696260077972,2.9555592630352963,,0.0
996,mp-13810,Na2TiZn2SiO7,"{'Na': 2.0, 'Ti': 1.0, 'Zn': 2.0, 'Si': 1.0, 'O': 7.0}",0.5094248740378803,3.8239886548438995,,0.16257336537606193
997,mp-40451,NaGd3Ti2(SbO7)2,"{'Na': 1.0, 'Gd': 3.0, 'Ti': 2.0, 'Sb': 2.0, 'O': 14.0}",0.534417647261899,6.283362113764062,,0.0
998,mp-40502,CsTiCoOF5,"{'Cs': 1.0, 'Ti': 1.0, 'Co': 1.0, 'O': 1.0, 'F': 5.0}",0.30785019985890216,3.9800107469502217,,0.0
999,mp-40830,NaSr3LaTi5O15,"{'Na': 1.0, 'Sr': 3.0, 'La': 1.0, 'Ti': 5.0, 'O': 15.0}",0.598313706722731,4.967811531853074,,0.0
1000,mp-41473,CsTiNiOF5,"{'Cs': 1.0, 'Ti': 1.0, 'Ni': 1.0, 'O': 1.0, 'F': 5.0}",0.31418499052941773,4.077465636171134,,0.0
1001,mp-41837,RbTiZnOF5,"{'Rb': 1.0, 'Ti': 1.0, 'Zn': 1.0, 'O': 1.0, 'F': 5.0}",0.28315736578101425,3.6119148876402676,,0.07900013888839652
1002,mp-42190,K2NaTiOF5,"{'K': 2.0, 'Na': 1.0, 'Ti': 1.0, 'O': 1.0, 'F': 5.0}",0.35690393927638986,2.8401052300253378,,0.0
1003,mp-554376,Y4TiSi2(O3F2)3,"{'Y': 4.0, 'Ti': 1.0, 'Si': 2.0, 'O': 9.0, 'F': 6.0}",0.3730974580206334,4.156307104764491,,0.0
1004,mp-555253,La5Ti2AgS5O7,"{'La': 5.0, 'Ti': 2.0, 'Ag': 1.0, 'S': 5.0, 'O': 7.0}",0.3237545198527557,5.369263340731335,,0.0
1005,mp-556938,Pr30Ti24Se58I8O25,"{'Pr': 30.0, 'Ti': 24.0, 'Se': 58.0, 'I': 8.0, 'O': 25.0}",0.2264029354921907,5.751800501179632,,0.0
1006,mp-559314,Na5TiP2O9F,"{'Na': 5.0, 'Ti': 1.0, 'P': 2.0, 'O': 9.0, 'F': 1.0}",0.4967499135661023,2.816745144840062,,0.0
1007,mp-559474,La5Ti2CuS5O7,"{'La': 5.0, 'Ti': 2.0, 'Cu': 1.0, 'S': 5.0, 'O': 7.0}",0.3226815567870484,5.287116348861998,,0.0
1008,mp-560564,Ti6In2Si2P12O49,"{'Ti': 6.0, 'In': 2.0, 'Si': 2.0, 'P': 12.0, 'O': 49.0}",0.4599161990100626,2.9818466044898977,,0.0
1009,mp-560843,Na4Zr2Ti(CO4)4,"{'Na': 4.0, 'Zr': 2.0, 'Ti': 1.0, 'C': 4.0, 'O': 16.0}",0.5351695922290705,3.3014211389313965,,0.0
1010,mp-677246,Ba6Ti2Nb10Si8O51,"{'Ba': 6.0, 'Ti': 2.0, 'Nb': 10.0, 'Si': 8.0, 'O': 51.0}",0.4761703878660672,4.1995663309154105,,0.0
1011,mp-684010,K8Ti5P2(O4F11)2,"{'K': 8.0, 'Ti': 5.0, 'P': 2.0, 'O': 8.0, 'F': 22.0}",0.3254687148939252,2.7100718809033975,,0.0
1012,mp-685281,TiZnH12(OF)6,"{'Ti': 1.0, 'Zn': 1.0, 'H': 12.0, 'O': 6.0, 'F': 6.0}",0.23613222817372154,2.0379530942767,,0.0
1013,mp-691045,Na5Ce3Ti6Nb2O24,"{'Na': 5.0, 'Ce': 3.0, 'Ti': 6.0, 'Nb': 2.0, 'O': 24.0}",0.5753009061557288,4.930479888459508,,0.0
1014,mp-694961,Na9Sr2Nd9Ti20O60,"{'Na': 9.0, 'Sr': 2.0, 'Nd': 9.0, 'Ti': 20.0, 'O': 60.0}",0.6049775441093211,5.082977332630285,,0.0
1015,mp-720098,Na2TiCr(PO4)3,"{'Na': 2.0, 'Ti': 1.0, 'Cr': 1.0, 'P': 3.0, 'O': 12.0}",0.5077401448000706,2.982173348707156,,0.0
1016,mp-743582,TiMnCr(PO4)3,"{'Ti': 1.0, 'Mn': 1.0, 'Cr': 1.0, 'P': 3.0, 'O': 12.0}",0.48319441308542016,3.211788591140924,,0.0
1017,mp-766224,Ti3VSn2(PO4)6,"{'Ti': 3.0, 'V': 1.0, 'Sn': 2.0, 'P': 6.0, 'O': 24.0}",0.44411589326465467,3.3611578013379453,,0.0
1018,mp-774749,RbNa3Li12Ti4O16,"{'Rb': 1.0, 'Na': 3.0, 'Li': 12.0, 'Ti': 4.0, 'O': 16.0}",0.5142501528675587,2.6615470587419114,,0.0
1019,mp-849433,SrTiH4(OF3)2,"{'Sr': 1.0, 'Ti': 1.0, 'H': 4.0, 'O': 2.0, 'F': 6.0}",0.22620303511964307,2.838103552248432,,0.0
1020,mp-1173765,Na2TiFe(PO4)3,"{'Na': 2.0, 'Ti': 1.0, 'Fe': 1.0, 'P': 3.0, 'O': 12.0}",0.5003956778049402,2.986977266857253,,0.0
1021,mp-1195138,SrTiCu4P4O17,"{'Sr': 1.0, 'Ti': 1.0, 'Cu': 4.0, 'P': 4.0, 'O': 17.0}",0.5031323711364923,3.937227073372588,,0.0
1022,mp-1210416,Na4CaZr2TiSi4(O8F)2,"{'Na': 4.0, 'Ca': 1.0, 'Zr': 2.0, 'Ti': 1.0, 'Si': 4.0, 'O': 16.0, 'F': 2.0}",0.4785339347402319,3.3949982665057035,,0.0
1023,mp-1221508,Na11TiNb2Si4P2O25F,"{'Na': 11.0, 'Ti': 1.0, 'Nb': 2.0, 'Si': 4.0, 'P': 2.0, 'O': 25.0, 'F': 1.0}",0.49865114888746714,3.040190673665291,,0.0
1024,mp-1223406,KRbTi4(PO4)6,"{'K': 1.0, 'Rb': 1.0, 'Ti': 4.0, 'P': 6.0, 'O': 24.0}",0.5120534303458597,3.018947174634053,,0.9480834722204179
1025,mp-1224541,K2TiCr(PO4)3,"{'K': 2.0, 'Ti': 1.0, 'Cr': 1.0, 'P': 3.0, 'O': 12.0}",0.5611867521615224,3.1234303719639884,,0.0
1026,mp-1224564,K4BaTi6S20O,"{'K': 4.0, 'Ba': 1.0, 'Ti': 6.0, 'S': 20.0, 'O': 1.0}",0.20809832214947163,2.7839561390450567,,0.39258568359290535