,mp_id,Formula,Composition,IPF,Density,Elastic_Tensor,E_above_Hull
538,mp-21306,TiCoSi,"{'Ti': 1.0, 'Co': 1.0, 'Si': 1.0}",0.13139149812245873,5.7176592376547415,"{'G_Reuss': 98.0, 'G_VRH': 100.0, 'G_Voigt': 102.0, 'G_Voigt_Reuss_Hill': 100.0, 'K_Reuss': 180.0, 'K_VRH': 181.0, 'K_Voigt': 181.0, 'K_Voigt_Reuss_Hill': 181.0, 'elastic_anisotropy': 0.18, 'elastic_tensor': [[285.0, 112.0, 115.0, 0.0, 0.0, 0.0], [112.0, 313.0, 149.0, 0.0, 0.0, 0.0], [115.0, 149.0, 283.0, 0.0, 0.0, 0.0], [0.0, 0.0, 0.0, 114.0, 0.0, 0.0], [0.0, 0.0, 0.0, 0.0, 123.0, 0.0], [0.0, 0.0, 0.0, 0.0, 0.0, 103.0]], 'homogeneous_poisson': 0.27, 'poisson_ratio': 0.27, 'universal_anisotropy': 0.18, 'elastic_tensor_original': [[282.59545431078067, 116.36127856629105, 150.78030274911293, 0.0, 0.0, 0.0], [114.07554965707722, 284.988606713447, 111.64587243897827, 0.0, 0.0, 0.0], [147.06634841872128, 111.45246734280495, 313.22926760786504, 0.0, 0.0, 0.0], [7.816001259782111e-05, -2.5030500041619242e-05, -1.5046673792752978e-05, 103.15655171602913, 0.0, 0.0], [-0.00035236690179311095, 1.0233155565962592e-06, -2.2773609858358326e-05, 0.0, 113.85009869415175, 0.0], [-0.00011334694090766729, -0.0003360200110632304, -8.226344714449845e-05, 0.0, 0.0, 122.72904801015471]], 'compliance_tensor': [[4.4, -1.0, -1.3, 0.0, 0.0, 0.0], [-1.0, 4.5, -2.0, 0.0, 0.0, 0.0], [-1.3, -2.0, 5.1, 0.0, -0.0, 0.0], [0.0, 0.0, 0.0, 8.8, 0.0, 0.0], [0.0, 0.0, -0.0, 0.0, 8.1, 0.0], [0.0, 0.0, 0.0, 0.0, 0.0, 9.7]], 'warnings': [], 'nsites': 12}",0.0
539,mp-22725,TiInCu2,"{'Ti': 1.0, 'In': 1.0, 'Cu': 2.0}",0.17405093231499572,7.837531383584235,"{'G_Reuss': 36.0, 'G_VRH': 46.0, 'G_Voigt': 57.0, 'G_Voigt_Reuss_Hill': 46.0, 'K_Reuss': 120.0, 'K_VRH': 120.0, 'K_Voigt': 120.0, 'K_Voigt_Reuss_Hill': 120.0, 'elastic_anisotropy': 2.95, 'elastic_tensor': [[146.0, 107.0, 107.0, 0.0, 0.0, 0.0], [107.0, 146.0, 107.0, 0.0, 0.0, 0.0], [107.0, 107.0, 146.0, 0.0, 0.0, 0.0], [0.0, 0.0, 0.0, 82.0, 0.0, 0.0], [0.0, 0.0, 0.0, 0.0, 82.0, 0.0], [0.0, 0.0, 0.0, 0.0, 0.0, 82.0]], 'homogeneous_poisson': 0.33, 'poisson_ratio': 0.33, 'universal_anisotropy': 2.95, 'elastic_tensor_original': [[151.61510582292112, 105.52765611260841, 105.52765611260841, 0.0, 0.0, 0.0], [107.11880353903602, 143.35872893602078, 107.11536595825551, -9.392340820474627e-05, 2.8607936993544215e-05, -0.00020300862402113386], [108.7638351247334, 108.76392384661392, 142.2264590272922, 0.00025845559164543104, -9.262038024953861e-05, -0.00030230460223710837], [-0.011126517969113599, -0.034430275309182204, 0.016107106107662035, 81.50642949985416, 0.0, 0.0], [0.012852178392126509, 0.007098659459512354, 0.009905337147268194, 0.0, 81.50795184669084, 0.0], [0.020607498210048474, -0.024009937534474373, 0.006689000649251496, 0.0, 0.0, 81.50726864252385]], 'compliance_tensor': [[18.2, -7.7, -7.7, 0.0, -0.0, -0.0], [-7.7, 18.2, -7.7, -0.0, 0.0, -0.0], [-7.7, -7.7, 18.2, -0.0, -0.0, 0.0], [0.0, -0.0, -0.0, 12.3, -0.0, -0.0], [-0.0, 0.0, -0.0, -0.0, 12.3, -0.0], [-0.0, -0.0, 0.0, -0.0, -0.0, 12.3]], 'warnings': [], 'nsites': 4}",0.0
540,mp-27315,CaTiF6,"{'Ca': 1.0, 'Ti': 1.0, 'F': 6.0}",0.1211141363709712,2.307503291141096,"{'G_Reuss': 18.0, 'G_VRH': 25.0, 'G_Voigt': 32.0, 'G_Voigt_Reuss_Hill': 25.0, 'K_Reuss': 50.0, 'K_VRH': 50.0, 'K_Voigt': 50.0, 'K_Voigt_Reuss_Hill': 50.0, 'elastic_anisotropy': 4.02, 'elastic_tensor': [[134.0, 9.0, 9.0, -0.0, -0.0, 0.0], [9.0, 134.0, 9.0, -0.0, -0.0, 0.0], [9.0, 9.0, 134.0, -0.0, -0.0, 0.0], [-0.0, -0.0, -0.0, 12.0, 0.0, -0.0], [-0.0, -0.0, -0.0, 0.0, 12.0, -0.0], [0.0, 0.0, 0.0, -0.0, -0.0, 12.0]], 'homogeneous_poisson': 0.29, 'poisson_ratio': 0.29, 'universal_anisotropy': 4.02, 'elastic_tensor_original': [[82.5241834175002, 22.63249286021944, 50.06628553553624, -20.771105513538338, 0.0, 0.0], [20.58484629935342, 84.71225970096039, 48.55012888614311, 21.83531718569195, 0.0, 0.0], [38.55298029337435, 38.55299149333313, 66.16513805795978, 9.199966136569974e-06, 0.0, 0.0], [-29.715627348773232, 17.559872019849077, -2.340700553586791, 46.11841039978437, 0.0, 0.0], [0.0, 0.0, 0.0, 0.0, 46.5935371022169, -23.746381310779523], [0.0, 0.0, 0.0, 0.0, -23.9873395189449, 27.26041404034107]], 'compliance_tensor': [[7.5, -0.5, -0.5, -0.0, 0.0, -0.0], [-0.5, 7.5, -0.5, 0.0, -0.0, -0.1], [-0.5, -0.5, 7.5, 0.1, 0.1, 0.0], [-0.0, 0.0, 0.1, 82.5, -0.1, 0.1], [0.0, -0.0, 0.1, -0.1, 82.5, 0.1], [-0.0, -0.1, 0.0, 0.1, 0.1, 82.5]], 'warnings': [], 'nsites': 8}",0.0
541,mp-27848,TiIN,"{'Ti': 1.0, 'I': 1.0, 'N': 1.0}",0.1817133411713443,4.6374993284668715,"{'G_Reuss': 4.0, 'G_VRH': 18.0, 'G_Voigt': 32.0, 'G_Voigt_Reuss_Hill': 18.0, 'K_Reuss': 4.0, 'K_VRH': 24.0, 'K_Voigt': 44.0, 'K_Voigt_Reuss_Hill': 24.0, 'elastic_anisotropy': 47.88, 'elastic_tensor': [[160.0, 2.0, 38.0, 0.0, 0.0, 0.0], [2.0, 4.0, 2.0, 0.0, 0.0, 0.0], [38.0, 2.0, 146.0, 0.0, 0.0, 0.0], [0.0, 0.0, 0.0, 2.0, 0.0, 0.0], [0.0, 0.0, 0.0, 0.0, 65.0, 0.0], [0.0, 0.0, 0.0, 0.0, 0.0, 2.0]], 'homogeneous_poisson': 0.2, 'poisson_ratio': 0.2, 'universal_anisotropy': 47.88, 'elastic_tensor_original': [[145.8705585695588, 37.88732304623272, 3.3378187236892054, 0.0, 0.0, 0.0], [38.328477061029204, 160.42544647419746, 1.4928462473128494, 0.0, 0.0, 0.0], [0.025857975150069608, 1.8724579660078897, 4.0502219178946826, 0.0, 0.0, 0.0], [0.0010655538052420836, 0.04268692223836868, -9.215337414574158e-05, 2.2662759836804547, 0.0, 0.0], [-0.007977601019388502, 0.00788928452594519, -0.0015183403552578986, 0.0, 1.8545838590830501, 0.0], [3.9086590567197e-05, 3.862325813546635e-05, 1.1736643816086337e-05, 0.0, 0.0, 64.75105587986766]], 'compliance_tensor': [[6.7, -2.1, -1.7, 0.0, 0.0, 0.0], [-2.1, 248.7, -2.3, 0.0, 0.0, 0.0], [-1.7, -2.3, 7.3, 0.0, 0.0, 0.0], [0.0, 0.0, 0.0, 539.2, 0.0, 0.0], [0.0, 0.0, 0.0, 0.0, 15.4, 0.0], [0.0, 0.0, 0.0, 0.0, 0.0, 441.3]], 'warnings': [], 'nsites': 6}",0.0
542,mp-28231,Ti2FeO5,"{'Ti': 2.0, 'Fe': 1.0, 'O': 5.0}",0.5202822019509765,4.0282905178558135,,0.0
543,mp-28766,K2TiS3,"{'K': 2.0, 'Ti': 1.0, 'S': 3.0}",0.24859938376377635,2.261437846081351,,0.0
544,mp-29260,Ti(SeO3)2,"{'Ti': 1.0, 'Se': 2.0, 'O': 6.0}",0.4590716066818037,3.735831301595404,,0.0
545,mp-30676,Zr3Ti2Ga3,"{'Zr': 3.0, 'Ti': 2.0, 'Ga': 3.0}",0.1238271433168514,6.367136528234842,,0.0
546,mp-30847,TiSnPt,"{'Ti': 1.0, 'Sn': 1.0, 'Pt': 1.0}",0.1184682979164383,9.92580275031248,"{'G_Reuss': 55.0, 'G_VRH': 56.0, 'G_Voigt': 57.0, 'G_Voigt_Reuss_Hill': 56.0, 'K_Reuss': 137.0, 'K_VRH': 137.0, 'K_Voigt': 137.0, 'K_Voigt_Reuss_Hill': 137.0, 'elastic_anisotropy': 0.16, 'elastic_tensor': [[197.0, 106.0, 106.0, 0.0, 0.0, 0.0], [106.0, 197.0, 106.0, 0.0, 0.0, 0.0], [106.0, 106.0, 197.0, 0.0, 0.0, 0.0], [0.0, 0.0, 0.0, 65.0, 0.0, 0.0], [0.0, 0.0, 0.0, 0.0, 65.0, 0.0], [0.0, 0.0, 0.0, 0.0, 0.0, 65.0]], 'homogeneous_poisson': 0.32, 'poisson_ratio': 0.32, 'universal_anisotropy': 0.16, 'elastic_tensor_original': [[196.58057367940935, 106.26430884609658, 106.26461115349504, 0.00044954958841037304, -0.0001068177809161124, 0.00012688992116333456], [106.27339359111198, 196.58878110428756, 106.27272947521536, 0.0008635357365793698, 0.00046524082102182237, 0.0013315580229003915], [106.69529206868157, 106.6944193030975, 197.02460971751705, -0.00024199910684058403, -0.00012484744959381642, 0.00016070816897470006], [-0.006356054053409724, 1.2305484132190077, -1.2418465670785899, 64.80898841699361, -0.00018805861670408792, -3.563927070245074e-05], [0.001177735256934263, 0.0001799072899579783, 0.0008963857418445113, 7.938319765452238e-05, 64.8077786091719, -3.5233909609738336e-06], [-0.0015423696835380365, -0.002594358874800649, -0.007268519807950844, 1.7759967775273437e-05, -7.70067351508324e-07, 64.81082275243463]], 'compliance_tensor': [[8.2, -2.9, -2.9, 0.0, 0.0, -0.0], [-2.9, 8.2, -2.9, -0.0, -0.0, -0.0], [-2.9, -2.9, 8.2, -0.0, 0.0, 0.0], [0.0, -0.0, -0.0, 15.4, -0.0, 0.0], [0.0, -0.0, 0.0, -0.0, 15.4, -0.0], [-0.0, -0.0, 0.0, 0.0, -0.0, 15.4]], 'warnings': [], 'nsites': 3}",0.0
547,mp-3247,Cs2TiS3,"{'Cs': 2.0, 'Ti': 1.0, 'S': 3.0}",0.3155173105132175,3.5303449110332887,,0.0
548,mp-3271,Ti3AlC,"{'Ti': 3.0, 'Al': 1.0, 'C': 1.0}",0.12537593240280195,4.14816071313334,"{'G_Reuss': 98.0, 'G_VRH': 101.0, 'G_Voigt': 103.0, 'G_Voigt_Reuss_Hill': 101.0, 'K_Reuss': 153.0, 'K_VRH': 153.0, 'K_Voigt': 153.0, 'K_Voigt_Reuss_Hill': 153.0, 'elastic_anisotropy': 0.22, 'elastic_tensor': [[326.0, 66.0, 66.0, 0.0, 0.0, 0.0], [66.0, 326.0, 66.0, 0.0, 0.0, 0.0], [66.0, 66.0, 326.0, 0.0, 0.0, 0.0], [0.0, 0.0, 0.0, 85.0, 0.0, 0.0], [0.0, 0.0, 0.0, 0.0, 85.0, 0.0], [0.0, 0.0, 0.0, 0.0, 0.0, 85.0]], 'homogeneous_poisson': 0.23, 'poisson_ratio': 0.23, 'universal_anisotropy': 0.22, 'elastic_tensor_original': [[326.13548859759925, 66.2890836111785, 66.2890836111785, 0.0, 0.0, 0.0], [66.28955193684051, 326.13580294480414, 66.28955193684051, 0.0, 0.0, 0.0], [66.29006684987301, 66.29006684987301, 326.13624797019605, 0.0, 0.0, 0.0], [0.0001512264546083708, 0.00013112983472641547, 0.00011722626436073056, 84.76406599191998, 0.0, 0.0], [0.0002157632124580076, 0.00020801668338542967, 5.1099150200074105e-06, 0.0, 84.76413533547687, 0.0], [-0.00013854990587170964, -0.0001677701131358522, -0.00014104682680463455, 0.0, 0.0, 84.76413929531242]], 'compliance_tensor': [[3.3, -0.6, -0.6, -0.0, -0.0, 0.0], [-0.6, 3.3, -0.6, 0.0, -0.0, -0.0], [-0.6, -0.6, 3.3, -0.0, 0.0, -0.0], [-0.0, 0.0, -0.0, 11.8, -0.0, -0.0], [-0.0, -0.0, 0.0, -0.0, 11.8, -0.0], [0.0, -0.0, -0.0, -0.0, -0.0, 11.8]], 'warnings': [], 'nsites': 5}",0.0
549,mp-3397,Ba2TiO4,"{'Ba': 2.0, 'Ti': 1.0, 'O': 4.0}",0.49365440630728835,4.964862891634228,"{'G_Reuss': 28.0, 'G_VRH': 29.0, 'G_Voigt': 30.0, 'G_Voigt_Reuss_Hill': 29.0, 'K_Reuss': 64.0, 'K_VRH': 64.0, 'K_Voigt': 64.0, 'K_Voigt_Reuss_Hill': 64.0, 'elastic_anisotropy': 0.36, 'elastic_tensor': [[104.0, 39.0, 45.0, 0.0, -4.0, 0.0], [39.0, 125.0, 40.0, 0.0, -0.0, 0.0], [45.0, 40.0, 100.0, 0.0, 6.0, 0.0], [0.0, 0.0, 0.0, 31.0, 0.0, 3.0], [-4.0, -0.0, 6.0, 0.0, 21.0, 0.0], [0.0, 0.0, 0.0, 3.0, 0.0, 28.0]], 'homogeneous_poisson': 0.3, 'poisson_ratio': 0.3, 'universal_anisotropy': 0.36, 'elastic_tensor_original': [[125.12700469654195, 39.462242494205846, 39.07028183936194, -0.24395133372246064, 0.0, 0.0], [39.86020328502729, 100.21825157766258, 44.97180481033714, 5.625097266825265, 0.0, 0.0], [39.033253027551346, 44.31894828733508, 104.18575304449995, -2.822848073047523, 0.0, 0.0], [-0.1907344689083398, 5.403093879664078, -4.7219665913698465, 20.596120160713667, 0.0, 0.0], [-0.019484444301266342, -0.019761378871547445, 0.004415423188434071, 0.0019007889253313543, 27.610150459352575, 2.820899414587772], [-0.021417113161661838, -0.00604380160830963, -0.007526873275754269, 0.0034279387675108563, 2.8141713130077055, 31.243347772342204]], 'compliance_tensor': [[12.7, -2.4, -4.9, 0.0, 3.6, 0.0], [-2.4, 9.6, -2.8, 0.0, 0.4, 0.0], [-4.9, -2.8, 13.5, 0.0, -4.5, 0.0], [0.0, 0.0, 0.0, 32.3, 0.0, -3.3], [3.6, 0.4, -4.5, 0.0, 50.4, 0.0], [0.0, 0.0, 0.0, -3.3, 0.0, 36.6]], 'warnings': [], 'nsites': 28}",0.0
550,mp-37808,Sc(TiN)9,"{'Sc': 1.0, 'Ti': 9.0, 'N': 9.0}",0.18236934488270695,5.11672372181307,,0.0
551,mp-505113,TiSn6F16,"{'Ti': 1.0, 'Sn': 6.0, 'F': 16.0}",0.09888815780776858,4.320555983720323,,0.0
552,mp-505639,Rb3Ti3Te11,"{'Rb': 3.0, 'Ti': 3.0, 'Te': 11.0}",0.2588137371063507,4.69989440520912,,0.0
553,mp-510085,Er2Ti3Si4,"{'Er': 2.0, 'Ti': 3.0, 'Si': 4.0}",0.12297746476331121,6.165890391834084,,0.0
554,mp-5214,TiTe3O8,"{'Ti': 1.0, 'Te': 3.0, 'O': 8.0}",0.5474054686907439,5.245689417965019,,0.0
555,mp-531527,Ba3Ti20O40,"{'Ba': 3.0, 'Ti': 20.0, 'O': 40.0}",0.5488254929138153,4.273558676810712,,0.02888772978693055
556,mp-540940,Ti(TlSe)4,"{'Ti': 1.0, 'Tl': 4.0, 'Se': 4.0}",0.19830404808985908,6.519442254418059,,0.0
557,mp-541856,U3TiGe5,"{'U': 3.0, 'Ti': 1.0, 'Ge': 5.0}",0.13730931628143359,10.518996047953808,,0.3105346666663067
558,mp-542011,Cs4Ti3S14,"{'Cs': 4.0, 'Ti': 3.0, 'S': 14.0}",0.24289113467122914,3.082650108721926,,0.0
559,mp-556024,Na2TiF6,"{'Na': 2.0, 'Ti': 1.0, 'F': 6.0}",0.18620481067119468,2.6261295435660896,,0.0
560,mp-558159,BaTi2O5,"{'Ba': 1.0, 'Ti': 2.0, 'O': 5.0}",0.5332045933329542,4.549419070906167,,0.0
561,mp-567159,Dy6Ti4Al43,"{'Dy': 6.0, 'Ti': 4.0, 'Al': 43.0}",0.10773035128276681,4.076372012943286,,0.0
562,mp-567883,Ti4CoBi2,"{'Ti': 4.0, 'Co': 1.0, 'Bi': 2.0}",0.15757432632903864,8.119448706319242,,0.0
563,mp-568469,Ca4TiN4,"{'Ca': 4.0, 'Ti': 1.0, 'N': 4.0}",0.2205428709154235,3.0618782746735493,"{'G_Reuss': 40.0, 'G_VRH': 43.0, 'G_Voigt': 46.0, 'G_Voigt_Reuss_Hill': 43.0, 'K_Reuss': 88.0, 'K_VRH': 90.0, 'K_Voigt': 91.0, 'K_Voigt_Reuss_Hill': 90.0, 'elastic_anisotropy': 0.74, 'elastic_tensor': [[124.0, 74.0, 56.0, -10.0, 11.0, 13.0], [74.0, 150.0, 61.0, 4.0, 12.0, -11.0], [56.0, 61.0, 165.0, 10.0, 5.0, 3.0], [-10.0, 4.0, 10.0, 53.0, -3.0, 3.0], [11.0, 12.0, 5.0, -3.0, 44.0, -5.0], [13.0, -11.0, 3.0, 3.0, -5.0, 50.0]], 'homogeneous_poisson': 0.29, 'poisson_ratio': 0.29, 'universal_anisotropy': 0.74, 'elastic_tensor_original': [[165.12241738042886, 59.20763666369981, 57.93912912410074, -3.336182306637823, 7.427136816089813, -8.985107892438744], [59.105643257647465, 163.4442929684835, 58.27569955128522, 9.023544794003044, 14.306955894084043, 2.788715067059134], [56.95714752601835, 58.833148682531174, 142.14652880346185, -17.5110280574368, 5.273977088477328, 8.92010926165591], [-3.715490598759035, 10.437868893969156, -17.58910205930583, 34.133928852234995, 2.5913938240229815, 6.7675857454900505], [7.763664172062687, 14.290471524570751, 6.225560112619506, 1.9408512081365512, 43.078598957714185, 0.16739774126234408], [-8.502126217745262, 2.902207154201958, 9.455206088488268, 7.468156603302901, 0.3055203478233651, 53.91303587708598]], 'compliance_tensor': [[13.9, -6.2, -2.5, 3.8, -1.8, -5.2], [-6.2, 10.9, -1.8, -1.9, -0.9, 4.2], [-2.5, -1.8, 7.7, -1.9, 0.1, -0.1], [3.8, -1.9, -1.9, 20.3, 0.9, -2.5], [-1.8, -0.9, 0.1, 0.9, 23.8, 2.7], [-5.2, 4.2, -0.1, -2.5, 2.7, 22.8]], 'warnings': [], 'nsites': 18}",0.0
564,mp-574169,TiGeTe6,"{'Ti': 1.0, 'Ge': 1.0, 'Te': 6.0}",0.2325758892430162,5.812934780557307,,0.0
565,mp-672677,Ti6Co16Si7,"{'Ti': 6.0, 'Co': 16.0, 'Si': 7.0}",0.14899310344180544,6.984071938239962,,0.0
566,mp-675452,Ti20H2N17,"{'Ti': 20.0, 'H': 2.0, 'N': 17.0}",0.18165659326918673,5.193011240718748,,0.0
567,mp-697076,Ti3Zn3C,"{'Ti': 3.0, 'Zn': 3.0, 'C': 1.0}",0.16945983402102666,6.02240501319284,,0.0
568,mp-752414,Tb2TiO5,"{'Tb': 2.0, 'Ti': 1.0, 'O': 5.0}",0.4709162742353691,6.650904753152898,,0.0
569,mp-752425,Dy2Ti2O7,"{'Dy': 2.0, 'Ti': 2.0, 'O': 7.0}",0.5753851777156748,6.701783770287893,,0.0
570,mp-752445,TiV2O7,"{'Ti': 1.0, 'V': 2.0, 'O': 7.0}",0.3908524661281799,2.6063501134330576,,0.0
571,mp-752676,TiBi2O5,"{'Ti': 1.0, 'Bi': 2.0, 'O': 5.0}",0.42307574733662023,7.131260369508755,,0.0
572,mp-753066,Ti2CoO5,"{'Ti': 2.0, 'Co': 1.0, 'O': 5.0}",0.5211294028380591,4.146706573308659,,0.0
573,mp-753401,Sc2TiO5,"{'Sc': 2.0, 'Ti': 1.0, 'O': 5.0}",0.4894529914316375,3.5195344819633716,,0.0
574,mp-758970,K3Ti8O17,"{'K': 3.0, 'Ti': 8.0, 'O': 17.0}",0.5621587809050538,3.477748048759122,,0.40037214285781886
575,mp-761010,TiP2O7,"{'Ti': 1.0, 'P': 2.0, 'O': 7.0}",0.4602284536720957,2.7063483282261807,,0.0
576,mp-766540,Li4TiS4,"{'Li': 4.0, 'Ti': 1.0, 'S': 4.0}",0.15066446963189645,1.9454520960436599,,0.0
577,mp-770128,Cs6Ti2O7,"{'Cs': 6.0, 'Ti': 2.0, 'O': 7.0}",0.5644053830842795,4.425706276752276,,0.0
578,mp-7733,Ba2Ti6O13,"{'Ba': 2.0, 'Ti': 6.0, 'O': 13.0}",0.5551828298694057,4.664112758218646,,0.0
579,mp-7942,NaTiS2,"{'Na': 1.0, 'Ti': 1.0, 'S': 2.0}",0.2002168501017248,3.025204167334896,"{'G_Reuss': 35.0, 'G_VRH': 37.0, 'G_Voigt': 39.0, 'G_Voigt_Reuss_Hill': 37.0, 'K_Reuss': 52.0, 'K_VRH': 52.0, 'K_Voigt': 52.0, 'K_Voigt_Reuss_Hill': 52.0, 'elastic_anisotropy': 0.57, 'elastic_tensor': [[105.0, 11.0, 34.0, 12.0, 0.0, 0.0], [11.0, 105.0, 34.0, -12.0, 0.0, 0.0], [34.0, 34.0, 99.0, 0.0, 0.0, 0.0], [12.0, -12.0, 0.0, 34.0, 0.0, 0.0], [0.0, 0.0, 0.0, 0.0, 34.0, 12.0], [0.0, 0.0, 0.0, 0.0, 12.0, 47.0]], 'homogeneous_poisson': 0.21, 'poisson_ratio': 0.21, 'universal_anisotropy': 0.57, 'elastic_tensor_original': [[105.20371247165299, 11.025869343904287, 35.451295646218554, -11.809998868673272, 0.0, 0.0], [10.84621515455386, 105.44755709243891, 35.19640292421059, 11.953662672971566, 0.0, 0.0], [33.432689303914174, 33.43269220354132, 99.32319397968843, 0.0, 0.0, 0.0], [-11.72705732871349, 12.261481163484868, -0.031997273359430325, 34.2124005252787, 0.0, 0.0], [-1.8796606807635892e-05, -1.1920016913620011e-05, -5.3596590359044846e-05, -2.8350011893259846e-05, 34.44918738970038, -12.063894647945048], [-0.02081560800768344, -0.008743094025367727, -0.03248622657383698, 0.0017113853533217002, -11.719794704500764, 47.179028797792185]], 'compliance_tensor': [[11.2, -0.4, -3.7, -4.0, 0.0, 0.0], [-0.4, 11.2, -3.7, 4.0, -0.0, 0.0], [-3.7, -3.7, 12.7, 0.0, -0.0, -0.0], [-4.0, 4.0, 0.0, 31.9, 0.0, -0.0], [0.0, -0.0, -0.0, 0.0, 31.9, -8.1], [0.0, 0.0, -0.0, -0.0, -8.1, 23.2]], 'warnings': [], 'nsites': 4}",0.0
580,mp-861627,Ti2AlMo,"{'Ti': 2.0, 'Al': 1.0, 'Mo': 1.0}",0.13098448326482023,5.652812263160933,"{'G_Reuss': 38.0, 'G_VRH': 42.0, 'G_Voigt': 47.0, 'G_Voigt_Reuss_Hill': 42.0, 'K_Reuss': 150.0, 'K_VRH': 150.0, 'K_Voigt': 150.0, 'K_Voigt_Reuss_Hill': 150.0, 'elastic_anisotropy': 1.1, 'elastic_tensor': [[183.0, 134.0, 134.0, 0.0, 0.0, 0.0], [134.0, 183.0, 134.0, 0.0, 0.0, 0.0], [134.0, 134.0, 183.0, 0.0, 0.0, 0.0], [0.0, 0.0, 0.0, 61.0, 0.0, 0.0], [0.0, 0.0, 0.0, 0.0, 61.0, 0.0], [0.0, 0.0, 0.0, 0.0, 0.0, 61.0]], 'homogeneous_poisson': 0.37, 'poisson_ratio': 0.37, 'universal_anisotropy': 1.1, 'elastic_tensor_original': [[180.5225944029647, 134.82826506566317, 134.82826506566317, 0.0, 0.0, 0.0], [132.9001943217495, 183.66040794732248, 132.9001943217495, 0.0, 0.0, 0.0], [133.68375755112973, 133.68375755112973, 183.6713885147207, 0.0, 0.0, 0.0], [0.0191437985606395, 0.020624806940141568, 0.020167338172461118, 61.422129738896714, 0.0, 0.0], [0.01641325688066513, 0.016012515417757296, 0.016875235479793232, 0.0, 61.42221359105324, 0.0], [0.09650640638553185, -0.10854197553192155, -0.029469882850470763, 0.0, 0.0, 61.41782115559952]], 'compliance_tensor': [[14.4, -6.1, -6.1, 0.0, 0.0, -0.0], [-6.1, 14.4, -6.1, -0.0, 0.0, 0.0], [-6.1, -6.1, 14.4, 0.0, -0.0, 0.0], [0.0, -0.0, 0.0, 16.3, -0.0, -0.0], [0.0, 0.0, -0.0, -0.0, 16.3, -0.0], [-0.0, 0.0, 0.0, -0.0, -0.0, 16.3]], 'warnings': [], 'nsites': 4}",0.0
581,mp-862911,Ti2CoTc,"{'Ti': 2.0, 'Co': 1.0, 'Tc': 1.0}",0.15720388320671286,7.508747467879704,"{'G_Reuss': 91.0, 'G_VRH': 94.0, 'G_Voigt': 97.0, 'G_Voigt_Reuss_Hill': 94.0, 'K_Reuss': 194.0, 'K_VRH': 194.0, 'K_Voigt': 194.0, 'K_Voigt_Reuss_Hill': 194.0, 'elastic_anisotropy': 0.3, 'elastic_tensor': [[363.0, 110.0, 110.0, 0.0, 0.0, 0.0], [110.0, 363.0, 110.0, 0.0, 0.0, 0.0], [110.0, 110.0, 363.0, 0.0, 0.0, 0.0], [0.0, 0.0, 0.0, 77.0, 0.0, 0.0], [0.0, 0.0, 0.0, 0.0, 77.0, 0.0], [0.0, 0.0, 0.0, 0.0, 0.0, 77.0]], 'homogeneous_poisson': 0.29, 'poisson_ratio': 0.29, 'universal_anisotropy': 0.3, 'elastic_tensor_original': [[362.52595218877457, 109.36947171373745, 109.36947171373745, 0.0, 0.0, 0.0], [109.21425595479073, 362.33687605891856, 109.21425595479073, 0.0, 0.0, 0.0], [110.386033518755, 110.386033518755, 363.7126172093574, 0.0, 0.0, 0.0], [-0.0002550902181467391, -0.0002680402292215784, -0.00027571356911721063, 76.9673012874124, 0.0, 0.0], [-0.00012175343745374777, -0.00013021677802366088, -0.00011927010199649167, 0.0, 76.9672623940458, 0.0], [-0.02152911507789249, -0.021396058297439104, -0.021418258316423706, 0.0, 0.0, 76.96435536155977]], 'compliance_tensor': [[3.2, -0.7, -0.7, -0.0, -0.0, -0.0], [-0.7, 3.2, -0.7, -0.0, -0.0, -0.0], [-0.7, -0.7, 3.2, -0.0, -0.0, -0.0], [-0.0, -0.0, -0.0, 13.0, 0.0, 0.0], [-0.0, -0.0, -0.0, 0.0, 13.0, 0.0], [-0.0, -0.0, -0.0, 0.0, 0.0, 13.0]], 'warnings': [], 'nsites': 4}",0.0