mp_id,Formula,IPF,Density,E_above_Hull,G_VRH,K_VRH,Elastic_Anisotropy,poisson_ratio,Y_Modulus
mp-10033,NbS2,0.123602586,4.019532925,0.0,15,23,72.82,0.24,37.2
mp-1018151,NbPd2,0.15362883300000002,10.5593086,0.0,74,190,1.39,0.33,196.84
mp-10255,Nb3B4,0.108717917,7.190484535,0.0,198,274,0.11,0.21,479.16
mp-1046,NbSn2,0.10332447199999999,7.982741992,0.0,49,96,0.18,0.28,125.44
mp-11272,Be2Nb3,0.12029355900000001,6.853194296,0.0,78,165,0.03,0.3,202.8
mp-11273,Be3Nb,0.115652644,4.710119604,0.0,126,155,0.05,0.18,297.36
mp-11393,Nb3Ga2,0.124283722,8.136717747,0.0,97,167,0.2,0.26,244.44
mp-11514,NbPt2,0.13737976400000002,16.49762617,0.0,108,244,0.69,0.31,282.96
mp-11517,NbRu3,0.099405979,11.00997227,0.0,128,271,0.56,0.3,332.8
mp-11675,NbTe2,0.25078116300000003,7.0943959670000005,0.0,19,28,3.63,0.22,46.36
mp-12104,NbSi2,0.081757756,5.577439731,0.0,140,175,0.05,0.18,330.4
mp-12659,Mn2Nb,0.115651329,8.479514313,0.0,75,233,0.1,0.36,204.0
mp-1326,Nb3Sn,0.122832766,8.694217983,0.0,22,164,0.1,0.44,63.36
mp-1359,NbIr,0.129094221,14.60515987,0.0,105,259,0.82,0.32,277.2
mp-13686,Nb5Si3,0.103422994,6.967600826,0.0,123,194,0.04,0.24,305.04
mp-13967,Nb5(CuSi)4,0.123542518,7.278267339,0.0,98,179,0.22,0.27,248.92
mp-1458,Nb3Ir,0.126407635,11.22804606,0.0,104,223,0.57,0.3,270.4
mp-1545,Nb3Rh,0.124184961,9.086567728,0.0,89,204,0.74,0.31,233.18
mp-1606,NbAu2,0.23612686800000002,15.18308488,0.0,64,175,1.15,0.34,171.52
mp-1842,NbAl3,0.096283695,4.501843442,0.0,105,127,0.17,0.18,247.8
mp-18427,Nb2Al,0.113506464,6.789453727000001,0.0,82,161,0.07,0.28,209.92
mp-1932,Nb3Os,0.118099291,11.20767839,0.0,91,223,0.71,0.32,240.24
mp-1963,NbRh,0.125687509,10.11175654,0.0,79,220,1.43,0.34,211.72
mp-1969,NbSb2,0.102260873,8.046465944,0.0,69,97,0.4,0.21,166.98
mp-1973,NbGa3,0.12104822400000001,7.758692646,0.0,87,122,0.19,0.21,210.54
mp-2053,Nb3Sb,0.12440919199999999,8.873377465,0.0,82,174,0.23,0.3,213.2
mp-2059,NbAs,0.09841300800000001,7.805231678999999,0.0,88,162,0.66,0.27,223.52
mp-20689,Nb3B2,0.116680646,7.7526327539999995,0.0,168,240,0.04,0.22,409.92
mp-2123,Nb3Au2,0.189810615,12.332301600000001,0.0,61,173,0.26,0.34,163.48
mp-22722,NbSiPd,0.119433554,8.188774737000001,0.0,81,195,0.52,0.32,213.84
mp-2311,NbO,0.41435504799999995,7.010466903999999,0.0,140,243,0.54,0.26,352.8
mp-24154,NbH2,0.096473437,6.584074606000001,0.0,81,178,0.02,0.3,210.6
mp-2478,NbSi2,0.081770639,5.578318615,0.004182222,140,175,0.05,0.18,330.4
mp-2580,NbB,0.112081368,7.429359322000001,0.0,197,264,0.08,0.2,472.8
mp-2634,NbN,0.150972156,7.984187205,0.0,211,313,0.16,0.23,519.06
mp-2663,Nb3Pt,0.129165596,11.15047725,0.0,80,207,0.68,0.33,212.8
mp-274,Nb5Sb4,0.108535151,8.117054467,0.0,55,98,1.11,0.26,138.6
mp-27793,Nb2Se,0.157465587,7.711559449,0.0,57,122,0.19,0.3,148.2
mp-29950,Nb3Cl8,0.082174685,3.360949549,0.0,8,14,81.6,0.24,19.84
mp-30441,Be17Nb2,0.11411839900000001,3.338361571,0.0,152,140,0.05,0.1,334.4
mp-30798,NbZn2,0.17597048699999998,8.152689628,0.0,82,141,0.01,0.26,206.64
mp-363,NbGe2,0.12357580300000001,7.967848054,0.0,105,142,0.09,0.2,252.0
mp-432,NbRu,0.108762125,9.95447607,0.0,53,237,0.04,0.4,148.4
mp-450,NbB2,0.103131325,6.793797917999999,0.0,195,287,0.28,0.22,475.8
mp-548,NbCr2,0.220183023,7.767773427000001,0.0,64,228,0.1,0.37,175.36
mp-557057,NbO2,0.521744642,5.6752529979999995,0.0,80,206,0.28,0.33,212.8
mp-568912,Be12Nb,0.111921781,2.9577772760000003,0.0,138,133,0.23,0.12,309.12
mp-571133,NbSe2,0.14792813400000002,5.587610023,0.0,13,22,29.28,0.25,32.5
mp-640041,NbZn16,0.185013342,7.295698646,0.0,33,85,0.63,0.33,87.78
mp-669692,NbPd3,0.15704971,10.82978148,0.0,79,196,0.19,0.32,208.56
mp-7250,Nb6Co7,0.14981988599999999,8.885808435,0.0,95,213,0.18,0.31,248.9
mp-7597,NbSe2,0.149909294,5.662443325,0.9910275,13,22,32.7,0.25,32.5
mp-7598,NbAs2,0.08503179599999999,7.264790629,0.0,90,124,0.27,0.21,217.8
mp-864992,MnNbRu2,0.0975975,9.661758778,0.0,88,220,0.55,0.32,232.32
mp-865248,TmNbRu2,0.147691291,11.12462904,0.0,74,178,0.41,0.32,195.36
mp-865255,LuNbRu2,0.13056416699999998,11.4106784,0.0,78,184,0.33,0.31,204.36
mp-865278,NbAlOs2,0.10117850199999999,13.66563839,0.0,130,262,0.0,0.29,335.4
mp-867146,ScNbRu2,0.117382902,8.682952113999999,0.0,91,195,0.2,0.3,236.6
mp-9339,NbP,0.093340274,6.386490671000001,0.0,109,188,0.41,0.26,274.68
mp-953,NbZn3,0.17669882,7.802320965,0.0,71,119,0.39,0.25,177.5
mp-977434,Nb3Ru,0.119591269,9.267233068,0.0,94,201,0.22,0.3,244.4
mp-999376,NbPt,0.13530971,14.39648001,0.0,115,223,0.12,0.28,294.4
mp-1025396,NbTl3Se4,0.187830432,6.44222176,0.0,41,37,0.15,0.1,90.2
mp-1029832,Ca2NbN3,0.186649607,3.731767685,0.0,-1,79,-9.38,0.51,-3.02
mp-10366,Nb2Co3Si,0.14166842,8.371822234,0.0,113,228,0.21,0.29,291.54
mp-10469,NbSiPt,0.110861026,11.28890695,0.0,81,215,0.17,0.33,215.46
mp-10470,NbSiRh,0.10469607199999999,8.279822034,0.0,112,221,0.28,0.28,286.72
mp-11537,NbAlRu2,0.100781187,8.956131445,0.0,117,231,0.01,0.28,299.52
mp-14827,Li7NbN4,0.232654576,2.7375651839999997,0.0,64,82,0.54,0.19,152.32
mp-17177,Nb2ZnO6,0.538156933,5.373026239,0.0,57,141,0.17,0.32,150.48
mp-17701,Sr2NbN3,0.22697701399999998,4.729103908,0.0,38,71,0.35,0.28,97.28
mp-21907,NbSiAs,0.084685916,6.601363588,0.0,104,153,0.14,0.22,253.76
mp-22287,NbGeIr,0.127296601,12.40314113,0.0,93,224,0.21,0.32,245.52
mp-23051,NbSeI,0.186624855,6.045157061,0.0,-20,42,-5.68,0.79,-71.6
mp-28938,Nb3TeCl7,0.102611476,3.7290774030000002,0.0,8,13,81.21,0.25,20.0
mp-29057,Nb3SBr7,0.096049828,4.63585335,0.0,9,13,38.92,0.21,21.78
mp-3020,BaNbO3,0.576061251,6.443755471,0.0,90,167,0.13,0.27,228.6
mp-33581,Ba9Nb10O30,0.564409951,6.2101490770000005,0.0,93,170,0.14,0.27,236.22
mp-3731,LiNbO3,0.5482423670000001,4.412866666,0.0,57,102,0.28,0.26,143.64
mp-3924,LiNbO2,0.558456335,5.52702232,0.0,100,154,1.22,0.23,246.0
mp-505297,NbSbRu,0.09916279300000001,8.790458586,0.0,66,168,0.0,0.33,175.56
mp-505517,BaNb4O6,0.490950803,6.721871925,0.0,109,185,0.32,0.25,272.5
mp-5246,KNbO3,0.615007038,4.360499831,0.133752,63,103,1.28,0.25,157.5
mp-553961,ScNbO4,0.534721541,4.62789057,0.0,61,167,0.77,0.34,163.48
mp-570558,Rb2NbCl6,0.19177160399999998,2.887440469,0.0,4,10,0.51,0.31,10.48
mp-571513,Rb2NbCl6,0.186891749,2.8139661289999998,0.39928444399999996,4,10,0.51,0.31,10.48
mp-7596,NbNO,0.351904011,6.119908709,0.0,109,237,0.55,0.3,283.4
mp-7829,MnNbSi,0.09863739099999999,7.0099979260000005,0.0,105,209,0.7,0.28,268.8
mp-7936,LiNbS2,0.172512206,4.242441144,0.0,57,83,0.24,0.22,139.08
mp-8615,NbBO4,0.652092288,5.028561988,0.0,141,252,0.74,0.26,355.32
mp-864672,NbSiTc2,0.107955842,8.897149752,0.0,87,241,0.06,0.34,233.16
mp-864831,NbZnRh2,0.14238593800000002,9.978124683999999,0.0,-66,203,-6.12,0.68,-221.76
mp-866112,HoNbRu2,0.134842841,10.89370047,0.0,68,177,0.55,0.33,180.88
mp-867786,ScNbOs2,0.118226784,13.10170965,0.0,114,226,0.05,0.28,291.84
mp-867919,ErNbRu2,0.133496601,11.01218075,0.0,71,180,0.46,0.33,188.86
mp-9437,NbFeSb,0.137300433,8.448733889,0.0,81,166,0.26,0.29,208.98
mp-9586,NbSnS2,0.12133852699999999,5.335198709,0.0,30,71,4.01,0.31,78.6
mp-977401,NbGaRu2,0.109324053,10.08234103,0.0,105,193,0.0,0.27,266.7
mp-977534,ZrNbTc2,0.123039323,9.255031964,0.0,92,246,0.39,0.33,244.72
mp-977555,MgNbRh2,0.13385766699999999,8.509189719,0.0,0,216,-10.04,0.5,0.0
mp-977563,LiNbIr2,0.154699169,13.65006744,0.0,98,279,0.26,0.34,262.64
mp-982725,Nb2RuW,0.11598413,11.74882527,0.0,113,200,0.16,0.26,284.76
mp-1029502,Ba(NbN2)2,0.19072403699999999,5.298203066,0.0,29,31,0.1,0.15,66.7
mp-1029903,LiNbN2,0.153143623,4.359774617,0.0,58,112,1.71,0.28,148.48
mp-12647,TbNbO4,0.515881812,6.800064763,0.0,54,136,0.83,0.32,142.56
mp-20144,NbCrP,0.157230954,7.08015918,0.0,114,212,0.28,0.27,289.56
mp-20279,NbInSe2,0.148583667,6.219207227,0.0,20,44,5.77,0.31,52.4
mp-20335,MnNbP,0.10425261300000001,7.462931908,0.0,100,228,0.68,0.31,262.0
mp-21248,NbSiIr,0.10700322699999999,11.48774668,0.0,121,244,0.17,0.29,312.18
mp-21449,NbCoP,0.12731991199999998,7.877527057000001,0.0,117,238,0.1,0.29,301.86
mp-4043,NbCu3Se4,0.143236804,5.344951145,0.0,22,33,0.39,0.22,53.68
mp-4364,NbGaCo2,0.14919867,8.743219427,0.0,79,194,0.84,0.32,208.56
mp-5370,ErNbO4,0.540063706,7.195147262000001,0.0,58,147,0.76,0.33,154.28
mp-5387,YNbO4,0.5279940870000001,5.316367767,0.0,51,132,1.05,0.33,135.66
mp-549720,NbI2O,0.23851397100000002,5.133429312,0.0,8,13,35.29,0.23,19.68
mp-5621,NbCu3S4,0.12209286300000001,4.041801788,0.0,25,40,0.81,0.24,62.0
mp-7557,Nb5SiSn2,0.11546914900000001,8.235170019,0.968512708,83,162,0.17,0.28,212.48
mp-768342,SrNb2O4,0.493796653,5.791987934,0.0,72,148,2.01,0.29,185.76
mp-7937,NaNbS2,0.199825423,4.103609345,0.0,48,75,0.2,0.24,119.04
mp-7939,NaNbSe2,0.210178484,5.440617507000001,0.0,38,61,0.13,0.24,94.24
mp-864669,NbGeRu2,0.110003857,10.11292528,0.0,70,225,-4.94,0.36,190.4
mp-864840,NbZnRu2,0.12665369099999998,9.996395114,0.0,77,218,0.64,0.34,206.36
mp-864857,NbZnCo2,0.17142919199999998,8.770584948,0.0,56,185,3.02,0.36,152.32
mp-865280,NbAlFe2,0.16790797300000002,7.347107032,0.0,124,212,0.0,0.26,312.48
mp-865653,TiNbRe2,0.124416023,13.37431832,0.0,115,254,0.04,0.3,299.0
mp-866026,ErNbOs2,0.134104194,15.11136385,0.0,86,211,0.06,0.32,227.04
mp-867828,BeNbRu2,0.10077746,9.103517464,0.0,71,231,0.0,0.36,193.12
mp-977430,MgNbRu2,0.119172383,8.547752408,0.0,79,228,0.03,0.34,211.72
mp-991676,NbCu3Te4,0.21242860100000002,6.157085005,0.0,20,30,0.02,0.23,49.2
mp-1018022,NbInS2,0.135004947,5.300545939,0.0,26,52,3.88,0.28,66.56
mp-1029422,NbZn2N3,0.142520321,5.634994044,0.0,53,139,0.03,0.33,140.98
mp-19746,NbPbS2,0.155739256,6.755714455,0.0,26,69,6.69,0.33,69.16
mp-27927,NbAlO4,0.506144688,4.164169894,0.0,74,172,0.39,0.31,193.88
mp-28150,BaNb2O6,0.52296181,5.294185787,0.0,35,88,4.41,0.33,93.1
mp-28357,NbHg3F6,0.19061445800000001,7.237400469,0.0,3,23,22.8,0.44,8.64
mp-3144,HoNbO4,0.537110744,7.078433398,0.0,59,149,0.59,0.33,156.94
mp-3283,RbNbO3,0.50694222,4.088579159,0.0,18,39,1.44,0.3,46.8
mp-3744,NaNbO2,0.564578351,5.414801144,0.0,97,146,0.5,0.23,238.62
mp-4500,ZrNbP,0.109448315,6.893886775,0.0,99,174,0.28,0.26,249.48
mp-540924,NbTeI3,0.187893153,5.026952627,0.0,1,6,-12.87,0.43,2.86
mp-550070,NbBr2O,0.164098556,4.452127603,0.0,12,11,-9.7,0.09,26.16
mp-606393,NbBr3O,0.135678751,4.064234461,0.0,4,8,8.77,0.28,10.24
mp-7375,KNbO3,0.616168746,4.368736534,0.0,41,103,4.1,0.33,109.06
mp-752467,NbO2F,0.342496129,3.9853654389999997,0.0,53,101,1.64,0.28,135.68
mp-7601,NbGaO4,0.482332651,4.819142822,0.0,59,163,0.29,0.34,158.12
mp-864631,LiNbRh2,0.15114825199999998,8.690848167999999,0.0,65,175,0.11,0.33,172.9
mp-864788,NbInRu2,0.125693975,10.42212331,0.0,95,208,0.03,0.3,247.0
mp-865241,TmNbOs2,0.14839128,15.27276005,0.0,88,204,0.11,0.31,230.56
mp-865655,TiNbTc2,0.13246080400000002,8.908701472,0.0,96,222,0.28,0.31,251.52
mp-865857,YbNbRu2,0.150517793,11.62432815,0.0,64,164,0.59,0.33,170.24
mp-867795,ScNbTc2,0.130076931,8.355342749,0.0,66,186,0.24,0.34,176.88
mp-8994,Rb2NbF6,0.301948686,3.8319813330000003,0.0,11,23,0.15,0.3,28.6
mp-8995,Cs2NbF6,0.32736808300000003,4.226923113,0.0,9,20,0.43,0.31,23.58
mp-9595,NbInO4,0.51869494,5.954351129,0.0,59,161,0.44,0.34,158.12
mp-9808,Rb3NbO8,0.591649305,3.697465904,0.0,12,27,0.82,0.3,31.2
mp-549490,KNb4O5F,0.44493007,5.59473081,0.0,84,139,1.0,0.25,210.0
mp-7251,Ba2YNbO6,0.541216102,5.840609635,0.0,77,134,0.22,0.26,194.04