,mp_id,Formula,Composition,IPF,Density,Elastic_Tensor,E_above_Hull,G_VRH,K_VRH,Elastic_Anisotropy,poisson_ratio,Y_Modulus
155,mp-12962,Zr6FeSb2,"{'Zr': 6.0, 'Fe': 1.0, 'Sb': 2.0}",0.12096057843147197,7.276886289223003,"{'G_Reuss': 58.0, 'G_VRH': 58.0, 'G_Voigt': 59.0, 'G_Voigt_Reuss_Hill': 58.0, 'K_Reuss': 113.0, 'K_VRH': 113.0, 'K_Voigt': 113.0, 'K_Voigt_Reuss_Hill': 113.0, 'elastic_anisotropy': 0.11, 'elastic_tensor': [[189.0, 87.0, 74.0, 0.0, 0.0, 0.0], [87.0, 189.0, 74.0, 0.0, 0.0, 0.0], [74.0, 74.0, 172.0, 0.0, 0.0, 0.0], [0.0, 0.0, 0.0, 69.0, 0.0, 0.0], [0.0, 0.0, 0.0, 0.0, 69.0, 0.0], [0.0, 0.0, 0.0, 0.0, 0.0, 51.0]], 'homogeneous_poisson': 0.28, 'poisson_ratio': 0.28, 'universal_anisotropy': 0.11, 'elastic_tensor_original': [[189.29981154612005, 84.9608510855811, 73.99258772931229, 0.0, 0.0, 0.0], [86.40015731023122, 190.17294306065523, 74.80701153662612, 0.0, 0.0, 0.0], [74.50824483774866, 74.50822305854231, 172.4656758389429, 0.0, 0.0, 0.0], [-0.0017303635383747874, -0.002003116866478482, -0.0011414569651580378, 68.90958669949339, 0.0, 0.0], [0.0003845267606162513, 0.000329146747085349, 0.0002315733899123036, 0.0, 69.0141299618675, 0.0], [0.37984365106985835, 0.39439273621784526, 0.3455848356144426, 0.0, 0.0, 49.89994981983882]], 'compliance_tensor': [[7.3, -2.5, -2.0, 0.0, 0.0, -0.0], [-2.5, 7.3, -2.0, 0.0, 0.0, -0.0], [-2.0, -2.0, 7.6, 0.0, 0.0, 0.0], [0.0, -0.0, -0.0, 14.5, -0.0, -0.0], [0.0, -0.0, -0.0, -0.0, 14.5, -0.0], [-0.0, -0.0, 0.0, 0.0, 0.0, 19.6]], 'warnings': [], 'nsites': 9}",0.0,58.0,113.0,0.11,0.28,148.48
156,mp-21363,TbFeSi,"{'Tb': 1.0, 'Fe': 1.0, 'Si': 1.0}",0.1343122029832427,7.5067882962236485,"{'G_Reuss': 50.0, 'G_VRH': 54.0, 'G_Voigt': 58.0, 'G_Voigt_Reuss_Hill': 54.0, 'K_Reuss': 86.0, 'K_VRH': 88.0, 'K_Voigt': 90.0, 'K_Voigt_Reuss_Hill': 88.0, 'elastic_anisotropy': 0.88, 'elastic_tensor': [[188.0, 49.0, 57.0, 0.0, 0.0, 0.0], [49.0, 188.0, 57.0, 0.0, 0.0, 0.0], [57.0, 57.0, 111.0, 0.0, 0.0, 0.0], [0.0, 0.0, 0.0, 41.0, 0.0, 0.0], [0.0, 0.0, 0.0, 0.0, 41.0, 0.0], [0.0, 0.0, 0.0, 0.0, 0.0, 100.0]], 'homogeneous_poisson': 0.25, 'poisson_ratio': 0.25, 'universal_anisotropy': 0.88, 'elastic_tensor_original': [[187.91000827792195, 49.29191638010364, 61.78048188719542, 0.0, 0.0, 0.0], [49.29191638010364, 187.91000827792195, 61.78048188719542, 0.0, 0.0, 0.0], [52.665730360839326, 52.665730360839326, 110.79605962349693, 0.0, 0.0, 0.0], [0.0, 0.0, 0.0, 41.27514109398394, 0.0, 0.0], [0.0, 0.0, 0.0, 0.0, 41.27514109398394, 0.0], [1.001559537639149, -1.0015595376391488, 0.0, 0.0, 0.0, 100.1499266265739]], 'compliance_tensor': [[6.4, -0.8, -2.9, 0.0, 0.0, -0.0], [-0.8, 6.4, -2.9, 0.0, 0.0, 0.0], [-2.9, -2.9, 12.0, 0.0, 0.0, -0.0], [0.0, 0.0, 0.0, 24.2, 0.0, 0.0], [0.0, 0.0, 0.0, 0.0, 24.2, 0.0], [-0.0, 0.0, -0.0, 0.0, 0.0, 10.0]], 'warnings': ['Contains a rare earth element'], 'nsites': 6}",0.0,54.0,88.0,0.88,0.25,135.0
157,mp-21883,VGaFe2,"{'V': 1.0, 'Ga': 1.0, 'Fe': 2.0}",0.19263137974617478,8.260081041652537,"{'G_Reuss': 121.0, 'G_VRH': 122.0, 'G_Voigt': 122.0, 'G_Voigt_Reuss_Hill': 122.0, 'K_Reuss': 225.0, 'K_VRH': 225.0, 'K_Voigt': 225.0, 'K_Voigt_Reuss_Hill': 225.0, 'elastic_anisotropy': 0.03, 'elastic_tensor': [[372.0, 151.0, 151.0, 0.0, 0.0, 0.0], [151.0, 372.0, 151.0, 0.0, 0.0, 0.0], [151.0, 151.0, 372.0, 0.0, 0.0, 0.0], [0.0, 0.0, 0.0, 130.0, 0.0, 0.0], [0.0, 0.0, 0.0, 0.0, 130.0, 0.0], [0.0, 0.0, 0.0, 0.0, 0.0, 130.0]], 'homogeneous_poisson': 0.27, 'poisson_ratio': 0.27, 'universal_anisotropy': 0.03, 'elastic_tensor_original': [[372.1214233772261, 150.89567783177893, 150.8954607884115, -3.964773428516227e-07, -1.2370853631076775e-05, 4.498558956982984e-06], [150.87792935417565, 372.5206299852798, 150.88220986314627, 0.00018760794885685063, -0.0004301975552051388, 5.478215945990129e-05], [150.89532621061244, 150.895431666506, 372.12198556829765, 0.0, 0.0, 0.0], [-0.00023472234661507305, -2.898122825438329e-05, -0.00012209732750310492, 129.8978113349905, 0.0, 0.0], [-0.0006656798362512852, -0.0006581555058465313, -0.0006790098339330978, 0.0, 129.89760607594906, 0.0], [-0.0737816173599218, -0.0684665553445904, -0.06981500705184603, 0.0, 0.0, 129.90331283698785]], 'compliance_tensor': [[3.5, -1.0, -1.0, -0.0, -0.0, 0.0], [-1.0, 3.5, -1.0, 0.0, 0.0, 0.0], [-1.0, -1.0, 3.5, 0.0, -0.0, -0.0], [-0.0, 0.0, 0.0, 7.7, 0.0, -0.0], [-0.0, 0.0, -0.0, 0.0, 7.7, 0.0], [0.0, 0.0, -0.0, -0.0, 0.0, 7.7]], 'warnings': [], 'nsites': 4}",0.0,122.0,225.0,0.03,0.27,309.88
158,mp-3299,Sr(FeP)2,"{'Sr': 1.0, 'Fe': 2.0, 'P': 2.0}",0.19550052751793978,5.2294993112533685,"{'G_Reuss': 52.0, 'G_VRH': 57.0, 'G_Voigt': 62.0, 'G_Voigt_Reuss_Hill': 57.0, 'K_Reuss': 83.0, 'K_VRH': 92.0, 'K_Voigt': 100.0, 'K_Voigt_Reuss_Hill': 92.0, 'elastic_anisotropy': 1.12, 'elastic_tensor': [[219.0, 67.0, 60.0, 0.0, 0.0, 0.0], [67.0, 219.0, 60.0, 0.0, 0.0, 0.0], [60.0, 60.0, 93.0, 0.0, 0.0, 0.0], [0.0, 0.0, 0.0, 49.0, 0.0, 0.0], [0.0, 0.0, 0.0, 0.0, 49.0, 0.0], [0.0, 0.0, 0.0, 0.0, 0.0, 97.0]], 'homogeneous_poisson': 0.24, 'poisson_ratio': 0.24, 'universal_anisotropy': 1.12, 'elastic_tensor_original': [[218.81730157851698, 66.50873011426722, 60.18391046422603, 0.0, 0.0, 0.0], [66.5092384076694, 218.8168536075253, 60.18395593073854, 0.0, 0.0, 0.0], [59.867049538100105, 59.867049538100105, 92.52799657322433, 0.0, 0.0, 0.0], [-3.3319972716124184e-05, 6.784661111212793e-05, 2.0549983173551147e-05, 49.283794971697816, 0.0, 0.0], [2.4143313564247568e-05, -5.619662065075833e-05, -1.951331735456666e-05, 0.0, 49.28384237832567, 0.0], [1.22333233815867e-06, 1.620665345045709e-05, 6.189994953247577e-06, 0.0, 0.0, 96.59814682152731]], 'compliance_tensor': [[5.7, -0.9, -3.1, 0.0, 0.0, 0.0], [-0.9, 5.7, -3.1, -0.0, 0.0, 0.0], [-3.1, -3.1, 14.9, -0.0, -0.0, -0.0], [0.0, -0.0, -0.0, 20.3, 0.0, 0.0], [0.0, 0.0, -0.0, 0.0, 20.3, -0.0], [0.0, 0.0, -0.0, 0.0, -0.0, 10.4]], 'warnings': [], 'nsites': 5}",0.0,57.0,92.0,1.12,0.24,141.35999999999999
159,mp-4939,Dy(FeSi)2,"{'Dy': 1.0, 'Fe': 2.0, 'Si': 2.0}",0.16826154390583853,7.343450701054419,"{'G_Reuss': 82.0, 'G_VRH': 84.0, 'G_Voigt': 85.0, 'G_Voigt_Reuss_Hill': 84.0, 'K_Reuss': 148.0, 'K_VRH': 149.0, 'K_Voigt': 149.0, 'K_Voigt_Reuss_Hill': 149.0, 'elastic_anisotropy': 0.17, 'elastic_tensor': [[265.0, 94.0, 104.0, 0.0, 0.0, 0.0], [94.0, 265.0, 104.0, 0.0, 0.0, 0.0], [104.0, 104.0, 211.0, 0.0, 0.0, 0.0], [0.0, 0.0, 0.0, 88.0, 0.0, 0.0], [0.0, 0.0, 0.0, 0.0, 88.0, 0.0], [0.0, 0.0, 0.0, 0.0, 0.0, 101.0]], 'homogeneous_poisson': 0.26, 'poisson_ratio': 0.26, 'universal_anisotropy': 0.17, 'elastic_tensor_original': [[264.5879082373317, 94.42228622600105, 110.23990711451827, 0.0, 1.1599964130418248e-05, 0.0], [94.42228622600105, 264.5879082373317, 110.23990711451827, 1.1599964134701738e-05, 2.3164546522816998e-07, 0.0], [97.13052877999932, 97.13052877999932, 210.68812022472022, 0.0, 0.0, 0.0], [0.0, 1.8592718250490193e-07, 0.0, 88.48298107863003, 0.0, 9.296320766726202e-08], [1.8592718595946268e-07, 0.0, 0.0, 0.0, 88.48298107863003, 9.296398125243614e-08], [1.0150173392742645, -1.0150173392742259, 0.0, -2.000024707024263e-07, 2.0000247078126942e-07, 101.49787787978782]], 'compliance_tensor': [[4.9, -1.0, -1.9, 0.0, -0.0, 0.0], [-1.0, 4.9, -1.9, -0.0, 0.0, 0.0], [-1.9, -1.9, 6.6, -0.0, -0.0, 0.0], [0.0, -0.0, -0.0, 11.3, 0.0, -0.0], [-0.0, 0.0, -0.0, 0.0, 11.3, -0.0], [0.0, 0.0, 0.0, -0.0, -0.0, 9.9]], 'warnings': ['Contains a rare earth element'], 'nsites': 5}",0.0,84.0,149.0,0.17,0.26,211.68
160,mp-5372,RbFeS2,"{'Rb': 1.0, 'Fe': 1.0, 'S': 2.0}",0.2543008406930701,3.1586920367926523,"{'G_Reuss': 5.0, 'G_VRH': 7.0, 'G_Voigt': 10.0, 'G_Voigt_Reuss_Hill': 7.0, 'K_Reuss': 15.0, 'K_VRH': 17.0, 'K_Voigt': 18.0, 'K_Voigt_Reuss_Hill': 17.0, 'elastic_anisotropy': 5.57, 'elastic_tensor': [[19.0, 11.0, 10.0, 0.0, 0.0, 0.0], [11.0, 23.0, 9.0, 0.0, -1.0, 0.0], [10.0, 9.0, 66.0, 0.0, -0.0, 0.0], [0.0, 0.0, 0.0, 2.0, 0.0, -1.0], [0.0, -1.0, -0.0, 0.0, 13.0, 0.0], [0.0, 0.0, 0.0, -1.0, 0.0, 7.0]], 'homogeneous_poisson': 0.31, 'poisson_ratio': 0.31, 'universal_anisotropy': 5.57, 'elastic_tensor_original': [[22.81721758912893, 10.901115856752314, 8.325062317755425, 0.36922750311938207, 0.0, 0.0], [10.970380178379397, 23.767160653497626, 11.074486874792422, 6.479899558455803, 0.0, 0.0], [8.296119259091116, 11.959198730855215, 58.00246791011446, 9.890336182930158, 0.0, 0.0], [-0.201724428620289, 5.89352361026793, 9.15375453744219, 14.652122999993246, 0.0, 0.0], [0.26110769634492104, 0.2531971709753097, 0.20205720767890617, -0.027462197914410836, 1.869686848567803, -1.171042089406568], [0.16713689557222863, 0.1792082390911632, 0.1579926739977296, 0.0012347856817966091, -0.9765203553018282, 6.824342258550471]], 'compliance_tensor': [[72.1, -30.8, -6.7, 0.0, -3.3, 0.0], [-30.8, 59.5, -3.3, 0.0, 4.8, 0.0], [-6.7, -3.3, 16.6, 0.0, -0.1, 0.0], [0.0, 0.0, 0.0, 593.8, 0.0, 77.8], [-3.3, 4.8, -0.1, 0.0, 77.3, 0.0], [0.0, 0.0, 0.0, 77.8, 0.0, 155.3]], 'warnings': [], 'nsites': 8}",0.0,7.0,17.0,5.57,0.31,18.34
161,mp-579496,Fe3PtN,"{'Fe': 3.0, 'Pt': 1.0, 'N': 1.0}",0.1915959768968402,10.875201077103956,"{'G_Reuss': 99.0, 'G_VRH': 100.0, 'G_Voigt': 101.0, 'G_Voigt_Reuss_Hill': 100.0, 'K_Reuss': 214.0, 'K_VRH': 214.0, 'K_Voigt': 214.0, 'K_Voigt_Reuss_Hill': 214.0, 'elastic_anisotropy': 0.08, 'elastic_tensor': [[370.0, 136.0, 136.0, 0.0, 0.0, 0.0], [136.0, 370.0, 136.0, 0.0, 0.0, 0.0], [136.0, 136.0, 370.0, 0.0, 0.0, 0.0], [0.0, 0.0, 0.0, 91.0, 0.0, 0.0], [0.0, 0.0, 0.0, 0.0, 91.0, 0.0], [0.0, 0.0, 0.0, 0.0, 0.0, 91.0]], 'homogeneous_poisson': 0.3, 'poisson_ratio': 0.3, 'universal_anisotropy': 0.08, 'elastic_tensor_original': [[369.58863478986217, 136.35908941248442, 136.35908941248442, 0.0, 0.0, 0.0], [136.35216245150966, 369.58233028881597, 136.35216245150966, 0.0, 0.0, 0.0], [136.38319086005757, 136.38319086005757, 369.61475457180927, 0.0, 0.0, 0.0], [0.0008577914691304404, 0.0007245112408642877, 0.0006852945070299192, 90.61925794598244, 0.0, 0.0], [0.0006246210697839243, 3.727339717102282e-05, 6.608677985375298e-05, 0.0, 90.61944081296231, 0.0], [0.0007054945416283241, 0.0005654209683925339, 0.0007164045603118261, 0.0, 0.0, 90.61914499912233]], 'compliance_tensor': [[3.4, -0.9, -0.9, 0.0, 0.0, -0.0], [-0.9, 3.4, -0.9, 0.0, 0.0, -0.0], [-0.9, -0.9, 3.4, 0.0, 0.0, -0.0], [0.0, 0.0, 0.0, 11.0, 0.0, -0.0], [0.0, 0.0, 0.0, 0.0, 11.0, 0.0], [-0.0, -0.0, -0.0, -0.0, 0.0, 11.0]], 'warnings': [], 'nsites': 5}",0.0,100.0,214.0,0.08,0.3,260.0
162,mp-626680,Fe(HO)2,"{'Fe': 1.0, 'H': 2.0, 'O': 2.0}",0.43912458716330993,3.385648190934757,"{'G_Reuss': 24.0, 'G_VRH': 27.0, 'G_Voigt': 30.0, 'G_Voigt_Reuss_Hill': 27.0, 'K_Reuss': 36.0, 'K_VRH': 44.0, 'K_Voigt': 52.0, 'K_Voigt_Reuss_Hill': 44.0, 'elastic_anisotropy': 1.68, 'elastic_tensor': [[132.0, 53.0, 14.0, 1.0, 0.0, 0.0], [53.0, 132.0, 14.0, -1.0, 0.0, 0.0], [14.0, 14.0, 45.0, 0.0, 0.0, 0.0], [1.0, -1.0, 0.0, 17.0, 0.0, 0.0], [0.0, 0.0, 0.0, 0.0, 17.0, 1.0], [0.0, 0.0, 0.0, 0.0, 1.0, 39.0]], 'homogeneous_poisson': 0.25, 'poisson_ratio': 0.25, 'universal_anisotropy': 1.68, 'elastic_tensor_original': [[132.2565616242947, 51.45668504287315, 15.180329378278786, -2.536117111197333, 0.0, 0.0], [52.78768271195137, 133.89091595126746, 16.526500886049963, 2.2467081262215305, 0.0, 0.0], [12.521469082024776, 12.521466881839146, 45.11543924080756, 0.0, 0.0, 0.0], [-0.174904253615831, 0.3612293207572147, -0.4895819284820482, 16.627266060241624, 0.0, 0.0], [-0.04727295452583204, -0.21016922840208418, -0.43368244109405496, 0.0255744262746407, 17.154003373626054, -0.6082000923609109], [0.007237330613803938, -0.5095585686423943, -0.034500729820058515, -0.11681707511942438, -2.157784768289923, 38.39958573691581]], 'compliance_tensor': [[9.2, -3.5, -1.8, -1.0, -0.0, 0.0], [-3.5, 9.2, -1.8, 1.0, -0.0, 0.0], [-1.8, -1.8, 23.3, -0.0, 0.0, -0.0], [-1.0, 1.0, 0.0, 59.4, 0.0, -0.0], [-0.0, -0.0, 0.0, 0.0, 59.4, -2.0], [0.0, 0.0, -0.0, -0.0, -2.0, 25.4]], 'warnings': [], 'nsites': 20}",0.45838500000172644,27.0,44.0,1.68,0.25,67.5
163,mp-866031,Al2FeIr,"{'Al': 2.0, 'Fe': 1.0, 'Ir': 1.0}",0.13580521487181216,9.665034987039776,"{'G_Reuss': 93.0, 'G_VRH': 99.0, 'G_Voigt': 105.0, 'G_Voigt_Reuss_Hill': 99.0, 'K_Reuss': 182.0, 'K_VRH': 182.0, 'K_Voigt': 182.0, 'K_Voigt_Reuss_Hill': 182.0, 'elastic_anisotropy': 0.66, 'elastic_tensor': [[267.0, 139.0, 139.0, 0.0, 0.0, 0.0], [139.0, 267.0, 139.0, 0.0, 0.0, 0.0], [139.0, 139.0, 267.0, 0.0, 0.0, 0.0], [0.0, 0.0, 0.0, 132.0, 0.0, 0.0], [0.0, 0.0, 0.0, 0.0, 132.0, 0.0], [0.0, 0.0, 0.0, 0.0, 0.0, 132.0]], 'homogeneous_poisson': 0.27, 'poisson_ratio': 0.27, 'universal_anisotropy': 0.66, 'elastic_tensor_original': [[267.0363968263031, 139.26378279000127, 139.2779931255657, -0.2109767820285072, -0.18787383647305675, -0.32781974117075846], [139.19327109355174, 267.03895381850606, 139.34908424060347, 0.5913211827409156, 0.6710067008598748, -0.33265023929278986], [139.23099017216927, 138.95915660506776, 267.21501228167426, 0.5903663064965141, -0.18668268826484827, 0.28645868369536237], [-0.03088303314116395, 0.42781011927928286, -0.4301885129618075, 132.0607266208755, -0.059849517612410155, -0.012083284983106811], [-0.0038511511065196786, -0.028249835573853056, 0.018530407749075623, 0.28243572040196985, 131.85091218552228, -0.03116291784539091], [1.2871742380717666, -1.2991486555166931, 0.05919879984924407, 0.25318087691575847, -0.012579244285023003, 131.8286847425539]], 'compliance_tensor': [[5.8, -2.0, -2.0, 0.0, 0.0, 0.0], [-2.0, 5.8, -2.0, -0.0, -0.0, 0.0], [-2.0, -2.0, 5.8, -0.0, 0.0, -0.0], [0.0, -0.0, -0.0, 7.6, 0.0, 0.0], [0.0, -0.0, 0.0, 0.0, 7.6, -0.0], [0.0, 0.0, -0.0, 0.0, -0.0, 7.6]], 'warnings': [], 'nsites': 4}",0.0,99.0,182.0,0.66,0.27,251.46
164,mp-866375,TiFe2Ge,"{'Ti': 1.0, 'Fe': 2.0, 'Ge': 1.0}",0.19972684237916302,7.947002590025136,"{'G_Reuss': 127.0, 'G_VRH': 127.0, 'G_Voigt': 127.0, 'G_Voigt_Reuss_Hill': 127.0, 'K_Reuss': 215.0, 'K_VRH': 215.0, 'K_Voigt': 215.0, 'K_Voigt_Reuss_Hill': 215.0, 'elastic_anisotropy': 0.0, 'elastic_tensor': [[383.0, 130.0, 130.0, 0.0, 0.0, 0.0], [130.0, 383.0, 130.0, 0.0, 0.0, 0.0], [130.0, 130.0, 383.0, 0.0, 0.0, 0.0], [0.0, 0.0, 0.0, 127.0, 0.0, 0.0], [0.0, 0.0, 0.0, 0.0, 127.0, 0.0], [0.0, 0.0, 0.0, 0.0, 0.0, 127.0]], 'homogeneous_poisson': 0.25, 'poisson_ratio': 0.25, 'universal_anisotropy': 0.0, 'elastic_tensor_original': [[382.7084258873391, 130.37435036450884, 130.37435036450884, 0.0, 0.0, 0.0], [130.62307360770288, 382.9439468230845, 130.62307360770288, 0.0, 0.0, 0.0], [130.40510783347793, 130.40510783347793, 382.73900906589665, 0.0, 0.0, 0.0], [0.00048532600320310055, 0.0003341795431624634, 0.00029302626608613197, 127.17526740520566, 0.0, 0.0], [0.0012428149676801037, 0.0012976148927663796, 0.0012293649860657435, 0.0, 127.1756879312975, 0.0], [0.00017756309059707628, 0.00015888311613293575, 0.0002022897234611171, 0.0, 0.0, 127.17532141846516]], 'compliance_tensor': [[3.2, -0.8, -0.8, -0.0, 0.0, 0.0], [-0.8, 3.2, -0.8, 0.0, 0.0, -0.0], [-0.8, -0.8, 3.2, -0.0, 0.0, 0.0], [-0.0, 0.0, -0.0, 7.9, 0.0, -0.0], [0.0, 0.0, 0.0, 0.0, 7.9, 0.0], [0.0, -0.0, 0.0, -0.0, 0.0, 7.9]], 'warnings': [], 'nsites': 4}",0.0,127.0,215.0,0.0,0.25,317.5
165,mp-1018071,MnFe2Ge,"{'Mn': 1.0, 'Fe': 2.0, 'Ge': 1.0}",0.17818629265494992,8.5873031821058,"{'G_Reuss': 10.0, 'G_VRH': 51.0, 'G_Voigt': 92.0, 'G_Voigt_Reuss_Hill': 51.0, 'K_Reuss': 217.0, 'K_VRH': 217.0, 'K_Voigt': 217.0, 'K_Voigt_Reuss_Hill': 217.0, 'elastic_anisotropy': 40.98, 'elastic_tensor': [[223.0, 214.0, 214.0, 0.0, 0.0, 0.0], [214.0, 223.0, 214.0, 0.0, 0.0, 0.0], [214.0, 214.0, 223.0, 0.0, 0.0, 0.0], [0.0, 0.0, 0.0, 151.0, 0.0, 0.0], [0.0, 0.0, 0.0, 0.0, 151.0, 0.0], [0.0, 0.0, 0.0, 0.0, 0.0, 151.0]], 'homogeneous_poisson': 0.39, 'poisson_ratio': 0.39, 'universal_anisotropy': 40.98, 'elastic_tensor_original': [[222.79405242672283, 214.41302604347308, 214.41302604347308, 0.0, 0.0, 0.0], [214.41302604347308, 222.79405242672283, 214.41302604347308, 0.0, 0.0, 0.0], [214.41302604347308, 214.41302604347308, 222.79405242672283, 0.0, 0.0, 0.0], [0.0, 0.0, 0.0, 151.3607979431475, 0.0, 0.0], [0.0, 0.0, 0.0, 0.0, 151.3607979431475, 0.0], [0.0, 0.0, 0.0, 0.0, 0.0, 151.3607979431475]], 'compliance_tensor': [[80.1, -39.3, -39.3, 0.0, -0.0, -0.0], [-39.3, 80.1, -39.3, -0.0, 0.0, 0.0], [-39.3, -39.3, 80.1, -0.0, -0.0, 0.0], [0.0, -0.0, -0.0, 6.6, -0.0, -0.0], [-0.0, 0.0, -0.0, -0.0, 6.6, -0.0], [-0.0, 0.0, 0.0, -0.0, -0.0, 6.6]], 'warnings': ['c11 and c12 are within 5% or c12 is greater than c11', 'c11 and c13 are within 5% or c13 is greater than c11', 'c11 and c23 are within 5% or c23 is greater than c11'], 'nsites': 4}",0.0,51.0,217.0,40.98,0.39,141.78
166,mp-16483,BaAl9Fe2,"{'Ba': 1.0, 'Al': 9.0, 'Fe': 2.0}",0.13972301430837555,3.7243295083372905,"{'G_Reuss': 42.0, 'G_VRH': 45.0, 'G_Voigt': 48.0, 'G_Voigt_Reuss_Hill': 45.0, 'K_Reuss': 79.0, 'K_VRH': 79.0, 'K_Voigt': 79.0, 'K_Voigt_Reuss_Hill': 79.0, 'elastic_anisotropy': 0.7, 'elastic_tensor': [[127.0, 65.0, 51.0, 0.0, 0.0, 0.0], [65.0, 127.0, 51.0, 0.0, 0.0, 0.0], [51.0, 51.0, 126.0, 0.0, 0.0, 0.0], [0.0, 0.0, 0.0, 69.0, 0.0, 0.0], [0.0, 0.0, 0.0, 0.0, 69.0, 0.0], [0.0, 0.0, 0.0, 0.0, 0.0, 31.0]], 'homogeneous_poisson': 0.26, 'poisson_ratio': 0.26, 'universal_anisotropy': 0.7, 'elastic_tensor_original': [[126.13022999025412, 66.94952266763906, 53.008488456107074, 0.0, 0.0, 0.0], [66.41466755509849, 124.8400661302368, 52.12036315900901, 0.0, 0.0, 0.0], [49.767753696657536, 49.76776543663891, 125.68640290759322, 0.0, 0.0, 0.0], [-0.00023413072621631282, -0.00022880733702227538, -0.00024188403095045316, 69.10669605052165, 0.0, 0.0], [2.0679975264009968e-05, 3.965328590041819e-05, 4.8113275781069745e-05, 0.0, 69.1235291186967, 0.0], [-5.444338352334884e-05, -4.663346734694375e-05, -6.442343812708552e-05, 0.0, 0.0, 32.45471746865046]], 'compliance_tensor': [[11.4, -4.8, -2.7, -0.0, 0.0, 0.0], [-4.8, 11.4, -2.7, -0.0, -0.0, 0.0], [-2.7, -2.7, 10.2, 0.0, 0.0, -0.0], [-0.0, -0.0, 0.0, 14.5, 0.0, 0.0], [-0.0, -0.0, 0.0, 0.0, 14.5, -0.0], [0.0, 0.0, -0.0, -0.0, -0.0, 32.3]], 'warnings': [], 'nsites': 12}",0.0,45.0,79.0,0.7,0.26,113.4
167,mp-19097,FeBO3,"{'Fe': 1.0, 'B': 1.0, 'O': 3.0}",0.6047509602150205,4.108906898895016,"{'G_Reuss': 88.0, 'G_VRH': 93.0, 'G_Voigt': 97.0, 'G_Voigt_Reuss_Hill': 93.0, 'K_Reuss': 167.0, 'K_VRH': 174.0, 'K_Voigt': 180.0, 'K_Voigt_Reuss_Hill': 174.0, 'elastic_anisotropy': 0.54, 'elastic_tensor': [[367.0, 135.0, 99.0, 22.0, 0.0, 0.0], [135.0, 367.0, 99.0, -22.0, 0.0, 0.0], [99.0, 99.0, 224.0, 0.0, 0.0, 0.0], [22.0, -22.0, 0.0, 79.0, 0.0, 0.0], [0.0, 0.0, 0.0, 0.0, 79.0, 22.0], [0.0, 0.0, 0.0, 0.0, 22.0, 116.0]], 'homogeneous_poisson': 0.27, 'poisson_ratio': 0.27, 'universal_anisotropy': 0.54, 'elastic_tensor_original': [[366.196694113947, 134.4017621684952, 99.40386839307382, -22.834266359905833, 0.0, 0.0], [134.71849340349382, 367.4833135069071, 99.25353913474767, 22.877717909597255, 0.0, 0.0], [98.25098628388074, 98.25091844854883, 223.5911233510855, 0.0, 0.0, 0.0], [-22.8303779833381, 20.96406271488837, -0.5044615546784683, 79.45967425680453, 0.0, 0.0], [0.1178415087294637, 0.0036312522615694447, 0.008557555284199775, -0.007991534935015606, 79.42413166191831, -21.98519436205867], [-6.542669779798493e-05, -5.163013422727127e-05, 4.215668571795176e-05, 1.8076698163980565e-05, -22.260977763714155, 115.79019079534275]], 'compliance_tensor': [[3.5, -1.1, -1.1, -1.3, -0.0, -0.0], [-1.1, 3.5, -1.1, 1.3, 0.0, -0.0], [-1.1, -1.1, 5.4, -0.0, 0.0, 0.0], [-1.3, 1.3, -0.0, 13.3, -0.0, 0.0], [0.0, 0.0, 0.0, -0.0, 13.3, -2.6], [-0.0, -0.0, 0.0, 0.0, -2.6, 9.1]], 'warnings': [], 'nsites': 10}",0.0,93.0,174.0,0.54,0.27,236.22