,mp_id,Formula,Composition,IPF,Density,Elastic_Tensor,E_above_Hull,G_VRH,K_VRH,Elastic_Anisotropy,poisson_ratio,Y_Modulus
130,mp-636320,TiGaFe2,"{'Ti': 1.0, 'Ga': 1.0, 'Fe': 2.0}",0.19699101657735282,7.798866002382084,"{'G_Reuss': 97.0, 'G_VRH': 100.0, 'G_Voigt': 103.0, 'G_Voigt_Reuss_Hill': 100.0, 'K_Reuss': 190.0, 'K_VRH': 190.0, 'K_Voigt': 190.0, 'K_Voigt_Reuss_Hill': 190.0, 'elastic_anisotropy': 0.32, 'elastic_tensor': [[288.0, 141.0, 141.0, 0.0, 0.0, 0.0], [141.0, 288.0, 141.0, 0.0, 0.0, 0.0], [141.0, 141.0, 288.0, 0.0, 0.0, 0.0], [0.0, 0.0, 0.0, 123.0, 0.0, 0.0], [0.0, 0.0, 0.0, 0.0, 123.0, 0.0], [0.0, 0.0, 0.0, 0.0, 0.0, 123.0]], 'homogeneous_poisson': 0.28, 'poisson_ratio': 0.28, 'universal_anisotropy': 0.32, 'elastic_tensor_original': [[285.9597739426787, 138.6951547089835, 138.69510710950084, 0.0, 0.0, 0.0], [141.55207444945597, 288.813006731965, 141.55202593296966, 0.0, 0.0, 0.0], [141.54478277853713, 141.54478277853713, 288.80517222063787, 0.0, 0.0, 0.0], [0.0001671439887012488, 0.0001744304351376065, 0.0001992725565789295, 122.93797698794816, 0.0, 0.0], [-6.500608983980992e-05, -2.169525216946297e-05, -5.5262462414860763e-05, 0.0, 122.93801568602242, 0.0], [0.00025483685449749396, 0.00026057244742524425, 0.0003225762305925857, 0.0, 0.0, 122.93822902292514]], 'compliance_tensor': [[5.1, -1.7, -1.7, -0.0, -0.0, 0.0], [-1.7, 5.1, -1.7, 0.0, 0.0, 0.0], [-1.7, -1.7, 5.1, 0.0, -0.0, -0.0], [-0.0, 0.0, 0.0, 8.1, 0.0, -0.0], [-0.0, 0.0, -0.0, 0.0, 8.1, 0.0], [0.0, 0.0, -0.0, -0.0, 0.0, 8.1]], 'warnings': [], 'nsites': 4}",0.0,100.0,190.0,0.32,0.28,256.0
131,mp-861953,AlFeRh2,"{'Al': 1.0, 'Fe': 1.0, 'Rh': 2.0}",0.1347054325552005,8.787100304790068,"{'G_Reuss': 9.0, 'G_VRH': 38.0, 'G_Voigt': 66.0, 'G_Voigt_Reuss_Hill': 38.0, 'K_Reuss': 193.0, 'K_VRH': 193.0, 'K_Voigt': 193.0, 'K_Voigt_Reuss_Hill': 193.0, 'elastic_anisotropy': 29.81, 'elastic_tensor': [[198.0, 190.0, 190.0, 0.0, 0.0, 0.0], [190.0, 198.0, 190.0, 0.0, 0.0, 0.0], [190.0, 190.0, 198.0, 0.0, 0.0, 0.0], [0.0, 0.0, 0.0, 107.0, 0.0, 0.0], [0.0, 0.0, 0.0, 0.0, 107.0, 0.0], [0.0, 0.0, 0.0, 0.0, 0.0, 107.0]], 'homogeneous_poisson': 0.41, 'poisson_ratio': 0.41, 'universal_anisotropy': 29.81, 'elastic_tensor_original': [[196.278452859021, 192.0606213258471, 192.0606213258471, 0.0, 0.0, 0.0], [191.92665328374346, 196.1573456879651, 191.92665328374346, 0.0, 0.0, 0.0], [187.10999617017208, 187.10999617017208, 202.59321721777982, 0.0, 0.0, 0.0], [-0.0002006632131397804, -0.0004671631695326098, -0.0004069632400013364, 106.92482899231207, 0.0, 0.0], [0.0012039767501742173, 0.0016133366695853545, 0.0012200567721242625, 0.0, 106.92473859915577, 0.0], [0.044114568349929155, 0.050367303321182576, 0.042650728693121025, 0.0, 0.0, 106.92342781277506]], 'compliance_tensor': [[84.1, -41.2, -41.2, -0.0, 0.0, 0.0], [-41.2, 84.1, -41.2, 0.0, -0.0, 0.0], [-41.2, -41.2, 84.1, 0.0, 0.0, -0.0], [-0.0, 0.0, 0.0, 9.4, -0.0, -0.0], [0.0, -0.0, 0.0, -0.0, 9.4, -0.0], [0.0, 0.0, -0.0, -0.0, -0.0, 9.4]], 'warnings': ['c11 and c12 are within 5% or c12 is greater than c11', 'c11 and c13 are within 5% or c13 is greater than c11', 'c11 and c23 are within 5% or c23 is greater than c11'], 'nsites': 4}",0.0,38.0,193.0,29.81,0.41,107.16
132,mp-861983,Ti2MnFe,"{'Ti': 2.0, 'Mn': 1.0, 'Fe': 1.0}",0.17020698849289723,6.549536522803793,"{'G_Reuss': 74.0, 'G_VRH': 78.0, 'G_Voigt': 83.0, 'G_Voigt_Reuss_Hill': 78.0, 'K_Reuss': 180.0, 'K_VRH': 180.0, 'K_Voigt': 180.0, 'K_Voigt_Reuss_Hill': 180.0, 'elastic_anisotropy': 0.63, 'elastic_tensor': [[339.0, 101.0, 101.0, 0.0, 0.0, 0.0], [101.0, 339.0, 101.0, 0.0, 0.0, 0.0], [101.0, 101.0, 339.0, 0.0, 0.0, 0.0], [0.0, 0.0, 0.0, 59.0, 0.0, 0.0], [0.0, 0.0, 0.0, 0.0, 59.0, 0.0], [0.0, 0.0, 0.0, 0.0, 0.0, 59.0]], 'homogeneous_poisson': 0.31, 'poisson_ratio': 0.31, 'universal_anisotropy': 0.63, 'elastic_tensor_original': [[338.8278747689678, 99.51054345581656, 99.51054345581656, 0.0, 0.0, 0.0], [101.18345411182598, 338.5850843908851, 101.18345411182598, 0.0, 0.0, 0.0], [101.15184329215258, 101.15184329215258, 338.5562079920648, 0.0, 0.0, 0.0], [-0.00022927634209774888, -0.00023043636073739375, -0.00022304634014538852, 58.61699274195926, 0.0, 0.0], [-9.196950918323678e-05, -8.183947230823709e-05, -8.543282422810496e-05, 0.0, 58.61698159863603, 0.0], [-5.060022414903217e-05, -6.263356604428783e-05, -7.624023726764301e-05, 0.0, 0.0, 58.61696380528193]], 'compliance_tensor': [[3.4, -0.8, -0.8, 0.0, 0.0, 0.0], [-0.8, 3.4, -0.8, -0.0, -0.0, 0.0], [-0.8, -0.8, 3.4, -0.0, 0.0, -0.0], [0.0, -0.0, -0.0, 17.1, 0.0, 0.0], [0.0, -0.0, 0.0, 0.0, 17.1, -0.0], [0.0, 0.0, -0.0, 0.0, -0.0, 17.1]], 'warnings': [], 'nsites': 4}",0.0,78.0,180.0,0.63,0.31,204.36
133,mp-865170,GaFeRh2,"{'Ga': 1.0, 'Fe': 1.0, 'Rh': 2.0}",0.1428965390542674,9.955781372266408,"{'G_Reuss': -163.0, 'G_VRH': -57.0, 'G_Voigt': 48.0, 'G_Voigt_Reuss_Hill': -57.0, 'K_Reuss': 192.0, 'K_VRH': 192.0, 'K_Voigt': 192.0, 'K_Voigt_Reuss_Hill': 192.0, 'elastic_anisotropy': -6.48, 'elastic_tensor': [[147.0, 214.0, 214.0, 0.0, 0.0, 0.0], [214.0, 147.0, 214.0, 0.0, 0.0, 0.0], [214.0, 214.0, 147.0, 0.0, 0.0, 0.0], [0.0, 0.0, 0.0, 103.0, 0.0, 0.0], [0.0, 0.0, 0.0, 0.0, 103.0, 0.0], [0.0, 0.0, 0.0, 0.0, 0.0, 103.0]], 'homogeneous_poisson': 0.67, 'poisson_ratio': 0.67, 'universal_anisotropy': -6.48, 'elastic_tensor_original': [[147.2657808294613, 213.95824798820613, 213.95824798820613, -0.6248847611286231, -0.09676825066324632, 0.09676825066324632], [213.95824798820613, 147.2657808294613, 213.95824798820613, -0.09676825066324139, 0.624884761128629, -0.09675865073758541], [213.95824798820613, 213.95824798820613, 147.2657808294613, -0.09675865073757955, -0.09675865073757955, 0.6248847611286231], [0.0, 0.0, 0.0, 102.57493805110342, 0.0, 0.0], [0.0, 0.0, 0.0, 0.0, 102.57493805110342, 0.0], [0.0, 0.0, 0.0, 0.0, 0.0, 102.57493805110342]], 'compliance_tensor': [[-9.4, 5.6, 5.6, -0.0, -0.0, 0.0], [5.6, -9.4, 5.6, -0.0, -0.0, -0.0], [5.6, 5.6, -9.4, -0.0, -0.0, -0.0], [-0.0, -0.0, -0.0, 9.7, 0.0, -0.0], [-0.0, -0.0, -0.0, 0.0, 9.7, -0.0], [0.0, -0.0, -0.0, -0.0, -0.0, 9.7]], 'warnings': ['Elastic tensor has a negative eigenvalue', 'c11 and c12 are within 5% or c12 is greater than c11', 'c11 and c13 are within 5% or c13 is greater than c11', 'c11 and c23 are within 5% or c23 is greater than c11', 'One or more K, G below 2 GPa'], 'nsites': 4}",0.0,-57.0,192.0,-6.48,0.67,-190.38
134,mp-865280,NbAlFe2,"{'Nb': 1.0, 'Al': 1.0, 'Fe': 2.0}",0.1679079732267066,7.347107032217943,"{'G_Reuss': 124.0, 'G_VRH': 124.0, 'G_Voigt': 124.0, 'G_Voigt_Reuss_Hill': 124.0, 'K_Reuss': 212.0, 'K_VRH': 212.0, 'K_Voigt': 212.0, 'K_Voigt_Reuss_Hill': 212.0, 'elastic_anisotropy': 0.0, 'elastic_tensor': [[379.0, 128.0, 128.0, 0.0, 0.0, 0.0], [128.0, 379.0, 128.0, 0.0, 0.0, 0.0], [128.0, 128.0, 379.0, 0.0, 0.0, 0.0], [0.0, 0.0, 0.0, 123.0, 0.0, 0.0], [0.0, 0.0, 0.0, 0.0, 123.0, 0.0], [0.0, 0.0, 0.0, 0.0, 0.0, 123.0]], 'homogeneous_poisson': 0.26, 'poisson_ratio': 0.26, 'universal_anisotropy': 0.0, 'elastic_tensor_original': [[378.59279167518434, 128.29515434933273, 128.29515434933273, 0.0, 0.0, 0.0], [128.44605483756783, 378.7566656824642, 128.44605483756783, 0.0, 0.0, 0.0], [128.46206662096438, 128.46206662096438, 378.7708087472571, 0.0, 0.0, 0.0], [0.056982292141381535, 0.056677452540071616, 0.05691745889284096, 122.95937832876378, 0.0, 0.0], [0.0010285653214403398, 0.0010139053406135843, 0.0010551519533338108, 0.0, 122.9722077186513, 0.0], [-0.01197619433672524, -0.01179141124506404, -0.012118567483852245, 0.0, 0.0, 122.96121996968853]], 'compliance_tensor': [[3.2, -0.8, -0.8, -0.0, 0.0, 0.0], [-0.8, 3.2, -0.8, 0.0, -0.0, 0.0], [-0.8, -0.8, 3.2, 0.0, 0.0, -0.0], [-0.0, 0.0, 0.0, 8.1, -0.0, -0.0], [0.0, -0.0, 0.0, -0.0, 8.1, -0.0], [0.0, 0.0, -0.0, -0.0, -0.0, 8.1]], 'warnings': [], 'nsites': 4}",0.0,124.0,212.0,0.0,0.26,312.48
135,mp-866051,HfFe2Sn,"{'Hf': 1.0, 'Fe': 2.0, 'Sn': 1.0}",0.16939683382649162,11.322827521885163,"{'G_Reuss': 107.0, 'G_VRH': 107.0, 'G_Voigt': 107.0, 'G_Voigt_Reuss_Hill': 107.0, 'K_Reuss': 179.0, 'K_VRH': 179.0, 'K_Voigt': 179.0, 'K_Voigt_Reuss_Hill': 179.0, 'elastic_anisotropy': 0.0, 'elastic_tensor': [[326.0, 105.0, 105.0, 0.0, 0.0, 0.0], [105.0, 326.0, 105.0, 0.0, 0.0, 0.0], [105.0, 105.0, 326.0, 0.0, 0.0, 0.0], [0.0, 0.0, 0.0, 106.0, 0.0, 0.0], [0.0, 0.0, 0.0, 0.0, 106.0, 0.0], [0.0, 0.0, 0.0, 0.0, 0.0, 106.0]], 'homogeneous_poisson': 0.25, 'poisson_ratio': 0.25, 'universal_anisotropy': 0.0, 'elastic_tensor_original': [[326.2374672144861, 105.7934249144405, 105.7934249144405, 0.0, 0.0, 0.0], [104.73994893007277, 325.08164857621796, 104.73996695569285, -2.0391977253593406e-06, 9.953455383107461e-07, 0.0], [105.26675692083005, 105.2667561971756, 325.65976457555513, -5.551989615083144e-06, 6.22903773869106e-06, -3.058216242771275e-06], [0.8875171250485531, -0.3390187433046618, 2.153481941077432, 105.55787197528936, -4.556320178938994e-07, 3.922887143972219e-07], [-0.8255079482448557, -0.865363882260749, -0.8286189089169116, 0.0, 105.5706191189524, 0.0], [-0.9773344170333279, 1.9277100620792789, 0.5083023665540665, 5.9959324869104e-07, 5.3241228031079095e-08, 105.57975018007211]], 'compliance_tensor': [[3.6, -0.9, -0.9, -0.0, -0.0, 0.0], [-0.9, 3.6, -0.9, -0.0, 0.0, 0.0], [-0.9, -0.9, 3.6, -0.0, -0.0, -0.0], [-0.0, -0.0, -0.0, 9.5, 0.0, -0.0], [-0.0, 0.0, -0.0, 0.0, 9.5, -0.0], [0.0, 0.0, -0.0, -0.0, -0.0, 9.5]], 'warnings': [], 'nsites': 4}",0.0,107.0,179.0,0.0,0.25,267.5
136,mp-9381,Zr6FeTe2,"{'Zr': 6.0, 'Fe': 1.0, 'Te': 2.0}",0.19094459519978396,7.415098713774526,"{'G_Reuss': 59.0, 'G_VRH': 60.0, 'G_Voigt': 60.0, 'G_Voigt_Reuss_Hill': 60.0, 'K_Reuss': 114.0, 'K_VRH': 114.0, 'K_Voigt': 114.0, 'K_Voigt_Reuss_Hill': 114.0, 'elastic_anisotropy': 0.09, 'elastic_tensor': [[187.0, 83.0, 74.0, 0.0, 0.0, 0.0], [83.0, 187.0, 74.0, 0.0, 0.0, 0.0], [74.0, 74.0, 186.0, 0.0, 0.0, 0.0], [0.0, 0.0, 0.0, 70.0, 0.0, 0.0], [0.0, 0.0, 0.0, 0.0, 70.0, 0.0], [0.0, 0.0, 0.0, 0.0, 0.0, 52.0]], 'homogeneous_poisson': 0.28, 'poisson_ratio': 0.28, 'universal_anisotropy': 0.09, 'elastic_tensor_original': [[187.22536469473582, 83.23798603609077, 73.79178668245929, 0.0, 0.0, 0.0], [83.04888226308287, 187.02645774732127, 73.69552250279216, 0.0, 0.0, 0.0], [74.41226936436604, 74.41225778456463, 186.11080441453245, 0.0, 0.0, 0.0], [-0.12089162852582822, -0.1378202912706203, -0.10211511503208075, 70.29587832621273, 0.0, 0.0], [-0.014104674130513096, -0.012039467918324104, -0.01174945178357822, 0.0, 70.2175202702018, 0.0], [-0.0002809998093615219, -0.0002762097580820765, -0.000295679843038602, 0.0, 0.0, 51.91682316864955]], 'compliance_tensor': [[7.2, -2.4, -1.9, 0.0, -0.0, 0.0], [-2.4, 7.2, -1.9, 0.0, 0.0, 0.0], [-1.9, -1.9, 6.9, -0.0, -0.0, -0.0], [0.0, 0.0, -0.0, 14.2, 0.0, 0.0], [-0.0, 0.0, -0.0, 0.0, 14.2, 0.0], [0.0, 0.0, -0.0, 0.0, 0.0, 19.2]], 'warnings': [], 'nsites': 9}",0.0,60.0,114.0,0.09,0.28,153.6
137,mp-9884,KFeSe2,"{'K': 1.0, 'Fe': 1.0, 'Se': 2.0}",0.23370120957497956,3.770900712859419,"{'G_Reuss': 6.0, 'G_VRH': 8.0, 'G_Voigt': 9.0, 'G_Voigt_Reuss_Hill': 8.0, 'K_Reuss': 16.0, 'K_VRH': 18.0, 'K_Voigt': 19.0, 'K_Voigt_Reuss_Hill': 18.0, 'elastic_anisotropy': 2.2, 'elastic_tensor': [[20.0, 12.0, 13.0, 0.0, -0.0, 0.0], [12.0, 25.0, 10.0, 0.0, -2.0, 0.0], [13.0, 10.0, 55.0, 0.0, 0.0, 0.0], [0.0, 0.0, 0.0, 3.0, 0.0, -1.0], [-0.0, -2.0, 0.0, 0.0, 13.0, 0.0], [0.0, 0.0, 0.0, -1.0, 0.0, 7.0]], 'homogeneous_poisson': 0.31, 'poisson_ratio': 0.31, 'universal_anisotropy': 2.2, 'elastic_tensor_original': [[25.488277929200052, 13.44231696164458, 8.889373839207389, 1.372670655270539, 0.0, 0.0], [13.122486664320991, 25.933847280311344, 12.735813878563143, 6.498789785059054, 0.0, 0.0], [9.54545240067416, 12.903646490428104, 49.97250617367169, 6.085243035148, 0.0, 0.0], [0.5181595953231718, 6.653333458655443, 6.083375996082245, 12.05122833178854, 0.0, 0.0], [-0.02250585286629858, -0.011496804869783989, 0.007024279641991098, -0.009693540772629142, 3.5454984251254924, -0.8669667072272967], [-0.01732299031215485, -0.019153574382966394, -0.014893102666572592, -0.0019179307726666706, -0.6601126192694319, 6.617976529482724]], 'compliance_tensor': [[77.3, -31.4, -12.8, 0.0, -2.3, 0.0], [-31.4, 56.0, -3.1, 0.0, 8.2, 0.0], [-12.8, -3.1, 21.9, 0.0, -1.1, 0.0], [0.0, 0.0, 0.0, 293.2, 0.0, 23.9], [-2.3, 8.2, -1.1, 0.0, 80.9, 0.0], [0.0, 0.0, 0.0, 23.9, 0.0, 151.0]], 'warnings': [], 'nsites': 8}",0.0,8.0,18.0,2.2,0.31,20.96
138,mp-10065,UFe3B2,"{'U': 1.0, 'Fe': 3.0, 'B': 2.0}",0.19358538383855708,11.036221026167702,"{'G_Reuss': 126.0, 'G_VRH': 132.0, 'G_Voigt': 138.0, 'G_Voigt_Reuss_Hill': 132.0, 'K_Reuss': 228.0, 'K_VRH': 233.0, 'K_Voigt': 237.0, 'K_Voigt_Reuss_Hill': 233.0, 'elastic_anisotropy': 0.55, 'elastic_tensor': [[468.0, 121.0, 169.0, 0.0, 0.0, 0.0], [121.0, 468.0, 169.0, 0.0, 0.0, 0.0], [169.0, 169.0, 280.0, 0.0, 0.0, 0.0], [0.0, 0.0, 0.0, 133.0, 0.0, 0.0], [0.0, 0.0, 0.0, 0.0, 133.0, 0.0], [0.0, 0.0, 0.0, 0.0, 0.0, 174.0]], 'homogeneous_poisson': 0.26, 'poisson_ratio': 0.26, 'universal_anisotropy': 0.55, 'elastic_tensor_original': [[464.5887922960746, 125.25099022336035, 166.89748375888902, 0.0, 0.0, 0.0], [121.40970331780093, 466.0985861975265, 167.47426006723762, 0.0, 0.0, 0.0], [171.32838228137132, 171.32841888144836, 279.7333633695359, 0.0, 0.0, 0.0], [0.0, 0.0, 0.0, 133.55165962497333, 0.0, 0.0], [0.0, 0.0, 0.0, 0.0, 132.83811241090177, 0.0], [3.994954332753164e-07, 0.0, 0.0, 0.0, 0.0, 176.48405193383616]], 'compliance_tensor': [[2.7, -0.1, -1.6, 0.0, 0.0, -0.0], [-0.1, 2.7, -1.6, 0.0, 0.0, -0.0], [-1.6, -1.6, 5.5, 0.0, 0.0, 0.0], [0.0, 0.0, 0.0, 7.5, -0.0, 0.0], [0.0, 0.0, 0.0, -0.0, 7.5, 0.0], [-0.0, -0.0, 0.0, 0.0, 0.0, 5.8]], 'warnings': ['Contains a rare earth element'], 'nsites': 6}",0.0,132.0,233.0,0.55,0.26,332.64
139,mp-1029739,Li6FeN4,"{'Li': 6.0, 'Fe': 1.0, 'N': 4.0}",0.24424175742746204,2.479937166925753,"{'G_Reuss': 69.0, 'G_VRH': 69.0, 'G_Voigt': 69.0, 'G_Voigt_Reuss_Hill': 69.0, 'K_Reuss': 83.0, 'K_VRH': 84.0, 'K_Voigt': 84.0, 'K_Voigt_Reuss_Hill': 84.0, 'elastic_anisotropy': 0.02, 'elastic_tensor': [[159.0, 35.0, 35.0, 0.0, 0.0, 0.0], [35.0, 187.0, 40.0, 0.0, 0.0, 0.0], [35.0, 40.0, 187.0, 0.0, 0.0, 0.0], [0.0, 0.0, 0.0, 71.0, 0.0, 0.0], [0.0, 0.0, 0.0, 0.0, 68.0, 0.0], [0.0, 0.0, 0.0, 0.0, 0.0, 68.0]], 'homogeneous_poisson': 0.17, 'poisson_ratio': 0.17, 'universal_anisotropy': 0.02, 'elastic_tensor_original': [[186.9695502946784, 40.292665364515884, 35.02893002749112, 0.0, 0.0, 0.0], [39.51323668006915, 186.9296295630101, 35.88035448125742, 0.0, 0.0, 0.0], [35.31948180005022, 35.31948180005022, 159.234974050401, 0.0, 0.0, 0.0], [0.033111565148487426, -0.007497447391939443, 0.014098335095757199, 67.88829741106329, 0.0, 0.0], [0.068698499435893, 0.08818351599117467, 0.07974740559242394, 0.0, 67.8185347853309, 0.0], [0.06599566595472514, 0.06669790899672813, 0.05849789239854523, 0.0, 0.0, 70.54835794268647]], 'compliance_tensor': [[6.7, -1.1, -1.1, 0.0, 0.0, -0.0], [-1.1, 5.8, -1.0, 0.0, 0.0, 0.0], [-1.1, -1.0, 5.8, 0.0, 0.0, -0.0], [0.0, 0.0, 0.0, 14.2, 0.0, 0.0], [0.0, 0.0, 0.0, 0.0, 14.7, 0.0], [-0.0, 0.0, -0.0, 0.0, 0.0, 14.7]], 'warnings': [], 'nsites': 22}",0.0,69.0,84.0,0.02,0.17,161.45999999999998
140,mp-10445,Sc6FeTe2,"{'Sc': 6.0, 'Fe': 1.0, 'Te': 2.0}",0.1941346317857757,4.9089042046840845,"{'G_Reuss': 29.0, 'G_VRH': 32.0, 'G_Voigt': 36.0, 'G_Voigt_Reuss_Hill': 32.0, 'K_Reuss': 68.0, 'K_VRH': 68.0, 'K_Voigt': 68.0, 'K_Voigt_Reuss_Hill': 68.0, 'elastic_anisotropy': 1.23, 'elastic_tensor': [[102.0, 65.0, 41.0, 0.0, 0.0, 0.0], [65.0, 102.0, 41.0, 0.0, 0.0, 0.0], [41.0, 41.0, 111.0, 0.0, 0.0, 0.0], [0.0, 0.0, 0.0, 53.0, 0.0, 0.0], [0.0, 0.0, 0.0, 0.0, 53.0, 0.0], [0.0, 0.0, 0.0, 0.0, 0.0, 18.0]], 'homogeneous_poisson': 0.29, 'poisson_ratio': 0.29, 'universal_anisotropy': 1.23, 'elastic_tensor_original': [[94.63309766991107, 70.91216103861478, 39.36696522680341, 0.0, 0.0, 0.0], [71.47184117822722, 98.07105807241405, 40.899081781701945, 0.0, 0.0, 0.0], [42.48462143637465, 42.48461089706966, 110.77787676151594, 0.0, 0.0, 0.0], [0.17435523874103828, 0.17052526058582604, 0.15063734345282023, 52.53197152188477, 0.0, 0.0], [-0.00877293317679288, -0.01255469644264781, -0.01865982300037803, 0.0, 52.517332849577265, 0.0], [-0.0405945017208472, -0.0842261599877222, -0.036139815231128976, 0.0, 0.0, 24.130057748178174]], 'compliance_tensor': [[17.3, -10.0, -2.7, -0.0, 0.0, -0.0], [-10.0, 17.3, -2.7, 0.0, -0.0, -0.0], [-2.7, -2.7, 11.1, 0.0, 0.0, 0.0], [-0.0, 0.0, 0.0, 19.0, -0.0, 0.0], [0.0, 0.0, 0.0, -0.0, 19.0, 0.0], [-0.0, -0.0, 0.0, 0.0, -0.0, 54.5]], 'warnings': [], 'nsites': 9}",0.0,32.0,68.0,1.23,0.29,82.56
141,mp-18750,Mn(FeO2)2,"{'Mn': 1.0, 'Fe': 2.0, 'O': 4.0}",0.49681063416758153,4.77457823904019,"{'G_Reuss': 55.0, 'G_VRH': 59.0, 'G_Voigt': 62.0, 'G_Voigt_Reuss_Hill': 59.0, 'K_Reuss': 158.0, 'K_VRH': 158.0, 'K_Voigt': 158.0, 'K_Voigt_Reuss_Hill': 158.0, 'elastic_anisotropy': 0.63, 'elastic_tensor': [[209.0, 132.0, 132.0, 0.0, 0.0, 0.0], [132.0, 209.0, 132.0, 0.0, 0.0, 0.0], [132.0, 132.0, 209.0, 0.0, 0.0, 0.0], [0.0, 0.0, 0.0, 78.0, 0.0, 0.0], [0.0, 0.0, 0.0, 0.0, 78.0, 0.0], [0.0, 0.0, 0.0, 0.0, 0.0, 78.0]], 'homogeneous_poisson': 0.33, 'poisson_ratio': 0.33, 'universal_anisotropy': 0.63, 'elastic_tensor_original': [[209.28586999430058, 132.30160719222616, 132.30160719222616, 0.0, 0.0, 0.0], [132.30379809896152, 209.27430223644726, 132.30379809896152, 0.0, 0.0, 0.0], [132.34757567666762, 132.34757567666762, 209.36680853980388, 0.0, 0.0, 0.0], [8.050667117512721e-05, -2.7766668221920903e-05, -8.842000495323384e-05, 78.43737516675777, 0.0, 0.0], [-4.2860002400386584e-05, 1.8646667710489256e-05, -7.368000412750628e-05, 0.0, 78.43737849675796, 0.0], [6.919000387553129e-05, 0.00011382000637444697, -3.882000217518704e-05, 0.0, 0.0, 78.4372282800829]], 'compliance_tensor': [[9.4, -3.6, -3.6, -0.0, 0.0, 0.0], [-3.6, 9.4, -3.6, 0.0, 0.0, -0.0], [-3.6, -3.6, 9.4, -0.0, -0.0, 0.0], [-0.0, 0.0, -0.0, 12.7, 0.0, -0.0], [0.0, 0.0, -0.0, 0.0, 12.7, 0.0], [0.0, -0.0, 0.0, -0.0, 0.0, 12.7]], 'warnings': [], 'nsites': 14}",0.0,59.0,158.0,0.63,0.33,156.94
142,mp-18924,Sr3(FeO3)2,"{'Sr': 3.0, 'Fe': 2.0, 'O': 6.0}",0.5337605861407245,4.9433616458472915,"{'G_Reuss': 52.0, 'G_VRH': 55.0, 'G_Voigt': 59.0, 'G_Voigt_Reuss_Hill': 55.0, 'K_Reuss': 108.0, 'K_VRH': 109.0, 'K_Voigt': 109.0, 'K_Voigt_Reuss_Hill': 109.0, 'elastic_anisotropy': 0.73, 'elastic_tensor': [[172.0, 111.0, 57.0, 0.0, 0.0, 0.0], [111.0, 172.0, 57.0, 0.0, 0.0, 0.0], [57.0, 57.0, 188.0, 0.0, 0.0, 0.0], [0.0, 0.0, 0.0, 51.0, 0.0, 0.0], [0.0, 0.0, 0.0, 0.0, 51.0, 0.0], [0.0, 0.0, 0.0, 0.0, 0.0, 90.0]], 'homogeneous_poisson': 0.28, 'poisson_ratio': 0.28, 'universal_anisotropy': 0.73, 'elastic_tensor_original': [[172.33417956711685, 111.0657258416776, 56.79847004324495, 0.0, 0.0, 0.0], [111.06074612621214, 172.3384151922742, 56.798612411679265, 0.0, 0.0, 0.0], [56.962979243723254, 56.962979243723254, 187.90375639843893, 0.0, 0.0, 0.0], [3.876753445098614e-06, 5.871332290306242e-05, -0.00029111131101815685, 50.98921853202065, 0.0, 0.0], [-7.836287123958272e-05, -8.12295522363581e-05, -0.00021181498923913912, 0.0, 50.98922678859827, 0.0], [7.184408490538026e-05, -0.0003084631025059991, -0.00022497670740969516, 0.0, 0.0, 90.43196922968252]], 'compliance_tensor': [[10.2, -6.2, -1.2, -0.0, 0.0, -0.0], [-6.2, 10.2, -1.2, -0.0, -0.0, -0.0], [-1.2, -1.2, 6.1, 0.0, -0.0, 0.0], [-0.0, -0.0, 0.0, 19.6, -0.0, 0.0], [0.0, -0.0, -0.0, -0.0, 19.6, -0.0], [-0.0, -0.0, 0.0, 0.0, -0.0, 11.1]], 'warnings': [], 'nsites': 11}",0.0,55.0,109.0,0.73,0.28,140.8