,mp_id,Formula,Composition,IPF,Density,Elastic_Tensor,E_above_Hull,G_VRH,K_VRH,Elastic_Anisotropy,poisson_ratio,Y_Modulus
205,mp-558078,Rb2NaFeF6,"{'Rb': 2.0, 'Na': 1.0, 'Fe': 1.0, 'F': 6.0}",0.35193898288972486,3.7785085010131514,"{'G_Reuss': 31.0, 'G_VRH': 31.0, 'G_Voigt': 31.0, 'G_Voigt_Reuss_Hill': 31.0, 'K_Reuss': 57.0, 'K_VRH': 57.0, 'K_Voigt': 57.0, 'K_Voigt_Reuss_Hill': 57.0, 'elastic_anisotropy': 0.0, 'elastic_tensor': [[98.0, 37.0, 37.0, 0.0, 0.0, 0.0], [37.0, 98.0, 37.0, 0.0, 0.0, 0.0], [37.0, 37.0, 98.0, 0.0, 0.0, 0.0], [0.0, 0.0, 0.0, 31.0, 0.0, 0.0], [0.0, 0.0, 0.0, 0.0, 31.0, 0.0], [0.0, 0.0, 0.0, 0.0, 0.0, 31.0]], 'homogeneous_poisson': 0.27, 'poisson_ratio': 0.27, 'universal_anisotropy': 0.0, 'elastic_tensor_original': [[98.14668370109958, 36.69274817557009, 36.69274817557009, 0.0, 0.0, 0.0], [36.69274817557009, 98.14668370109958, 36.69274817557009, 0.0, 0.0, 0.0], [36.69274817557009, 36.69274817557009, 98.14668370109958, 0.0, 0.0, 0.0], [0.0, 0.0, 0.0, 31.296268835208988, 0.0, 0.0], [0.0, 0.0, 0.0, 0.0, 31.296268835208988, 0.0], [0.0, 0.0, 0.0, 0.0, 0.0, 31.296268835208988]], 'compliance_tensor': [[12.791503864039992, -3.48084698620909, -3.48084698620909, 1.2354710418139846e-16, -4.487608784148635e-16, -5.253120703331689e-18], [-3.4808469862090905, 12.791503864039989, -3.48084698620909, -4.487608784148635e-16, 1.2354710418139843e-16, 5.253120703331702e-18], [-3.4808469862090905, -3.4808469862090896, 12.791503864039989, -4.487608784148634e-16, -4.487608784148633e-16, 1.2168619150160064e-32], [1.235471041813985e-16, -4.487608784148636e-16, -4.487608784148634e-16, 31.952690758937308, 2.768799728313059e-32, -5.670548618929295e-16], [-4.487608784148636e-16, 1.2354710418139846e-16, -4.487608784148634e-16, 2.76879972831306e-32, 31.952690758937308, -5.670548618929295e-16], [-5.25312070333173e-18, 5.253120703331741e-18, 1.4497800589522572e-32, -5.670548618929295e-16, -5.670548618929295e-16, 31.952690758937308]], 'warnings': [], 'nsites': 10}",0.0,31.0,57.0,0.0,0.27,78.74
206,mp-6624,Tb2Fe2Si2C,"{'Tb': 2.0, 'Fe': 2.0, 'Si': 2.0, 'C': 1.0}",0.13344869829192668,7.583527316438486,"{'G_Reuss': 76.0, 'G_VRH': 81.0, 'G_Voigt': 85.0, 'G_Voigt_Reuss_Hill': 81.0, 'K_Reuss': 125.0, 'K_VRH': 126.0, 'K_Voigt': 128.0, 'K_Voigt_Reuss_Hill': 126.0, 'elastic_anisotropy': 0.61, 'elastic_tensor': [[208.0, 82.0, 74.0, 0.0, -47.0, 0.0], [82.0, 255.0, 78.0, 0.0, 11.0, 0.0], [74.0, 78.0, 217.0, 0.0, 9.0, 0.0], [0.0, 0.0, 0.0, 92.0, 0.0, 15.0], [-47.0, 11.0, 9.0, 0.0, 92.0, 0.0], [0.0, 0.0, 0.0, 15.0, 0.0, 93.0]], 'homogeneous_poisson': 0.24, 'poisson_ratio': 0.24, 'universal_anisotropy': 0.61, 'elastic_tensor_original': [[208.22327743076627, 90.04247675398538, 81.62510192019883, -5.599963564792366e-06, -45.98119543119588, 2.5399834740308226e-05], [73.51486219941073, 255.3757772950916, 77.5836029665636, 0.0, 11.188429473265511, 0.0], [66.90695809007501, 78.86662319541037, 216.7114027681667, 1.2000060709701434e-06, 9.081666345205255, 8.200041484962647e-06], [0.0, 0.0, 0.0, 91.94003719862671, 0.0, 14.683324225278515], [-48.35208788769093, 11.368000655351135, 8.620735671977148, 1.1300015561726007e-05, 92.50464159202694, -6.000008262863366e-06], [0.0, 0.0, 0.0, 14.785302945725352, 0.0, 93.09922075482145]], 'compliance_tensor': [[7.1, -1.9, -1.9, 0.0, 4.1, 0.0], [-1.9, 4.9, -1.1, -0.0, -1.5, 0.0], [-1.9, -1.1, 5.7, -0.0, -1.4, 0.0], [0.0, -0.0, -0.0, 11.2, 0.0, -1.8], [4.1, -1.5, -1.4, 0.0, 13.2, -0.0], [0.0, 0.0, 0.0, -1.8, -0.0, 11.0]], 'warnings': ['Contains a rare earth element'], 'nsites': 7}",0.0,81.0,126.0,0.61,0.24,200.88
207,mp-998980,TiAlFeCo,"{'Ti': 1.0, 'Al': 1.0, 'Fe': 1.0, 'Co': 1.0}",0.1707558408601182,6.423142027062664,"{'G_Reuss': 127.0, 'G_VRH': 127.0, 'G_Voigt': 127.0, 'G_Voigt_Reuss_Hill': 127.0, 'K_Reuss': 175.0, 'K_VRH': 175.0, 'K_Voigt': 175.0, 'K_Voigt_Reuss_Hill': 175.0, 'elastic_anisotropy': 0.01, 'elastic_tensor': [[355.0, 85.0, 85.0, 0.0, 0.0, 0.0], [85.0, 355.0, 85.0, 0.0, 0.0, 0.0], [85.0, 85.0, 355.0, 0.0, 0.0, 0.0], [0.0, 0.0, 0.0, 122.0, 0.0, 0.0], [0.0, 0.0, 0.0, 0.0, 122.0, 0.0], [0.0, 0.0, 0.0, 0.0, 0.0, 122.0]], 'homogeneous_poisson': 0.21, 'poisson_ratio': 0.21, 'universal_anisotropy': 0.01, 'elastic_tensor_original': [[354.73151078367266, 85.14902128274706, 85.14902128274706, 0.0, 0.0, 0.0], [85.14902128274706, 354.73151078367266, 85.14902128274706, 0.0, 0.0, 0.0], [85.14902128274706, 85.14902128274706, 354.73151078367266, 0.0, 0.0, 0.0], [0.0, 0.0, 0.0, 122.2514391925068, 0.0, 0.0], [0.0, 0.0, 0.0, 0.0, 122.2514391925068, 0.0], [0.0, 0.0, 0.0, 0.0, 0.0, 122.2514391925068]], 'compliance_tensor': [[3.1, -0.6, -0.6, 0.0, -0.0, 0.0], [-0.6, 3.1, -0.6, -0.0, 0.0, -0.0], [-0.6, -0.6, 3.1, -0.0, -0.0, 0.0], [0.0, -0.0, -0.0, 8.2, 0.0, -0.0], [-0.0, 0.0, -0.0, 0.0, 8.2, -0.0], [0.0, -0.0, 0.0, -0.0, -0.0, 8.2]], 'warnings': [], 'nsites': 4}",0.0,127.0,175.0,0.01,0.21,307.34
208,mp-1025316,Ho2Fe2Si2C,"{'Ho': 2.0, 'Fe': 2.0, 'Si': 2.0, 'C': 1.0}",0.15054940510822462,7.927919170981369,"{'G_Reuss': 80.0, 'G_VRH': 84.0, 'G_Voigt': 87.0, 'G_Voigt_Reuss_Hill': 84.0, 'K_Reuss': 128.0, 'K_VRH': 129.0, 'K_Voigt': 130.0, 'K_Voigt_Reuss_Hill': 129.0, 'elastic_anisotropy': 0.51, 'elastic_tensor': [[217.0, 85.0, 68.0, 0.0, -41.0, 0.0], [85.0, 265.0, 82.0, 0.0, 15.0, 0.0], [68.0, 82.0, 220.0, 0.0, 14.0, 0.0], [0.0, 0.0, 0.0, 95.0, 0.0, 16.0], [-41.0, 15.0, 14.0, 0.0, 93.0, 0.0], [0.0, 0.0, 0.0, 16.0, 0.0, 94.0]], 'homogeneous_poisson': 0.23, 'poisson_ratio': 0.23, 'universal_anisotropy': 0.51, 'elastic_tensor_original': [[217.03698178744568, 83.17307883960916, 67.5613200197049, 5.599941682480147e-06, -46.09124700799922, -2.6599722991780696e-05], [86.8241784807858, 265.47365318392366, 84.63579424987704, -1.199981702345358e-06, 9.53595259314347, -1.0599838370717333e-05], [68.868097250339, 79.87447802860322, 219.8232872681649, -1.0000055766384734e-06, 8.762003062250894, -8.400046843763178e-06], [0.0, -4.004424410792306e-06, 0.0, 94.5798584606152, 0.0, 16.273364113775195], [-36.555270883398975, 20.959896084313634, 19.41562865755877, -1.149987434805944e-05, 93.36543505423657, 4.599949739223775e-06], [0.0, -2.304522404423393e-05, 0.0, 16.675149848653042, 0.0, 93.74080026246317]], 'compliance_tensor': [[6.4, -1.8, -1.5, -0.0, 3.4, 0.0], [-1.8, 4.8, -1.1, 0.0, -1.4, 0.0], [-1.5, -1.1, 5.5, 0.0, -1.3, -0.0], [-0.0, 0.0, 0.0, 10.9, 0.0, -1.9], [3.4, -1.4, -1.3, 0.0, 12.6, -0.0], [0.0, 0.0, -0.0, -1.9, -0.0, 11.0]], 'warnings': ['Contains a rare earth element'], 'nsites': 7}",0.0,84.0,129.0,0.51,0.23,206.64
209,mp-1025357,Lu2Fe2Si2C,"{'Lu': 2.0, 'Fe': 2.0, 'Si': 2.0, 'C': 1.0}",0.14549856856572418,8.519183743668963,"{'G_Reuss': 82.0, 'G_VRH': 85.0, 'G_Voigt': 88.0, 'G_Voigt_Reuss_Hill': 85.0, 'K_Reuss': 141.0, 'K_VRH': 141.0, 'K_Voigt': 142.0, 'K_Voigt_Reuss_Hill': 141.0, 'elastic_anisotropy': 0.37, 'elastic_tensor': [[252.0, 97.0, 78.0, 0.0, 35.0, 0.0], [97.0, 266.0, 87.0, 0.0, -14.0, 0.0], [78.0, 87.0, 232.0, 0.0, -16.0, 0.0], [0.0, 0.0, 0.0, 97.0, 0.0, -19.0], [35.0, -14.0, -16.0, 0.0, 91.0, 0.0], [0.0, 0.0, 0.0, -19.0, 0.0, 90.0]], 'homogeneous_poisson': 0.25, 'poisson_ratio': 0.25, 'universal_anisotropy': 0.37, 'elastic_tensor_original': [[251.4927206630843, 107.01408121305873, 88.43313690369061, 4.200014129541798e-06, 33.966905470284765, 3.100010428947517e-05], [87.40746000767422, 265.827355547531, 90.19870569675344, -3.999988376663149e-06, -16.206101707618362, 2.159993723398101e-05], [68.52181417615404, 83.76886923689199, 231.6818708707762, -1.9999643558158557e-06, -16.88547426015968, 8.399850294426596e-06], [0.0, -4.519451125694275e-06, 0.0, 97.22509535832343, 0.0, -18.408411537490423], [35.333516577619584, -11.24872313704889, -14.05352836022443, 1.1300055288203628e-05, 90.92856948961666, 4.300021038873946e-06], [0.0, 2.2282725165635756e-05, 0.0, -19.361035744920358, 0.0, 89.90786527769967]], 'compliance_tensor': [[5.4, -1.7, -1.4, -0.0, -2.5, -0.0], [-1.7, 4.8, -1.2, -0.0, 1.2, -0.0], [-1.4, -1.2, 5.3, -0.0, 1.3, 0.0], [-0.0, -0.0, -0.0, 10.7, -0.0, 2.3], [-2.5, 1.2, 1.3, -0.0, 12.4, -0.0], [-0.0, -0.0, 0.0, 2.3, -0.0, 11.6]], 'warnings': ['Contains a rare earth element'], 'nsites': 7}",0.0,85.0,141.0,0.37,0.25,212.5
210,mp-18878,LiFeAs2O7,"{'Li': 1.0, 'Fe': 1.0, 'As': 2.0, 'O': 7.0}",0.4984981386663735,4.028044539275526,"{'G_Reuss': 47.0, 'G_VRH': 48.0, 'G_Voigt': 49.0, 'G_Voigt_Reuss_Hill': 48.0, 'K_Reuss': 94.0, 'K_VRH': 96.0, 'K_Voigt': 98.0, 'K_Voigt_Reuss_Hill': 96.0, 'elastic_anisotropy': 0.34, 'elastic_tensor': [[139.0, 57.0, 81.0, 0.0, 9.0, 0.0], [57.0, 142.0, 74.0, 0.0, 10.0, 0.0], [81.0, 74.0, 180.0, 0.0, 7.0, 0.0], [0.0, 0.0, 0.0, 54.0, 0.0, 11.0], [9.0, 10.0, 7.0, 0.0, 63.0, 0.0], [0.0, 0.0, 0.0, 11.0, 0.0, 48.0]], 'homogeneous_poisson': 0.29, 'poisson_ratio': 0.29, 'universal_anisotropy': 0.34, 'elastic_tensor_original': [[138.81979493448728, 55.25167328634375, 79.04807547121328, 0.11208804072080761, 14.293771088285204, -0.06451530832254593], [57.92729667030707, 141.78954517492195, 72.7007736346326, 0.29259794787244836, 8.049544170178665, 0.291383546428635], [82.27854188795769, 74.97318935883479, 179.78483874890748, -0.0435122593977346, 5.330578279669677, 0.0017022179718334761], [1.1800057749156305e-05, 7.354119545948252e-05, 6.213158850499188e-05, 53.50574398892412, 3.384213804269115e-05, 11.661118346040986], [4.2195551620370075, 11.088787504137784, 9.110108015574717, -0.2577716480407009, 62.66079695960617, 0.040196434961501715], [4.821665310967611e-05, 5.914426085147731e-05, 1.228125721105727e-05, 10.576230432672235, 3.301641033564879e-05, 47.64894668473626]], 'compliance_tensor': [[10.275023777431638, -2.1155672876890352, -3.710038485448926, 9.478889445836047e-06, -0.7489507714845502, -1.7769015997258926e-05], [-2.115567287689039, 9.464242763840263, -2.906374975240839, -2.1997801930740315e-05, -0.7954466521428103, -1.885403480195678e-05], [-3.7100384854489206, -2.906374975240839, 8.418564160019429, -1.6055487546209095e-05, 0.009187900862223266, 1.111217187591966e-05], [9.478889445833796e-06, -2.199780193073693e-05, -1.605548754620927e-05, 19.628042251904102, -1.2379693076619414e-05, -4.579675505371973], [-0.7489507714845517, -0.7954466521428096, 0.009187900862223628, -1.2379693076619255e-05, 16.186883066160327, -1.950279315632687e-05], [-1.7769015997257774e-05, -1.885403480196035e-05, 1.1112171875920551e-05, -4.579675505371971, -1.95027931563266e-05, 22.070316781266268]], 'warnings': [], 'nsites': 11}",0.0,48.0,96.0,0.34,0.29,123.84