,mp_id,Formula,Composition,IPF,Density,Elastic_Tensor,E_above_Hull,G_VRH,K_VRH,Elastic_Anisotropy,poisson_ratio,Y_Modulus
104,mp-20924,U(FeSi)2,"{'U': 1.0, 'Fe': 2.0, 'Si': 2.0}",0.1458053346377448,9.280268498520932,"{'G_Reuss': 68.0, 'G_VRH': 82.0, 'G_Voigt': 95.0, 'G_Voigt_Reuss_Hill': 82.0, 'K_Reuss': 168.0, 'K_VRH': 168.0, 'K_Voigt': 168.0, 'K_Voigt_Reuss_Hill': 168.0, 'elastic_anisotropy': 1.94, 'elastic_tensor': [[239.0, 184.0, 95.0, 0.0, 0.0, 0.0], [184.0, 239.0, 95.0, 0.0, 0.0, 0.0], [95.0, 95.0, 290.0, 0.0, 0.0, 0.0], [0.0, 0.0, 0.0, 103.0, 0.0, 0.0], [0.0, 0.0, 0.0, 0.0, 103.0, 0.0], [0.0, 0.0, 0.0, 0.0, 0.0, 137.0]], 'homogeneous_poisson': 0.29, 'poisson_ratio': 0.29, 'universal_anisotropy': 1.94, 'elastic_tensor_original': [[238.74003767450796, 184.3374535690731, 96.07600837655349, 0.0, 1.0399943817246628e-05, 0.0], [184.3374535690731, 238.74003767450796, 96.07600837655349, 1.0399943817419438e-05, 0.0, 0.0], [93.91903293828574, 93.91903293828574, 290.00717602035337, 0.0, 0.0, 0.0], [0.0, 0.0, 0.0, 102.93619845013882, 0.0, 0.0], [0.0, 0.0, 0.0, 0.0, 102.93619845013882, 0.0], [1.369047309884309, -1.369047309884309, 0.0, 1.9999835797544668e-07, -1.9999835797881818e-07, 136.8967573538958]], 'compliance_tensor': [[10.6, -7.8, -0.9, -0.0, 0.0, -0.0], [-7.8, 10.6, -0.9, 0.0, -0.0, 0.0], [-0.9, -0.9, 4.0, 0.0, 0.0, 0.0], [-0.0, 0.0, 0.0, 9.7, -0.0, 0.0], [0.0, -0.0, 0.0, -0.0, 9.7, 0.0], [-0.0, 0.0, 0.0, 0.0, 0.0, 7.3]], 'warnings': ['Contains a rare earth element'], 'nsites': 5}",0.0,82.0,168.0,1.94,0.29,211.56
105,mp-21662,TiFeSi2,"{'Ti': 1.0, 'Fe': 1.0, 'Si': 2.0}",0.12595933635788817,5.1432356119067775,"{'G_Reuss': 116.0, 'G_VRH': 116.0, 'G_Voigt': 116.0, 'G_Voigt_Reuss_Hill': 116.0, 'K_Reuss': 180.0, 'K_VRH': 180.0, 'K_Voigt': 181.0, 'K_Voigt_Reuss_Hill': 180.0, 'elastic_anisotropy': 0.03, 'elastic_tensor': [[317.0, 94.0, 98.0, 0.0, 0.0, 0.0], [94.0, 328.0, 113.0, 0.0, 0.0, 0.0], [98.0, 113.0, 374.0, 0.0, 0.0, 0.0], [0.0, 0.0, 0.0, 113.0, 0.0, 0.0], [0.0, 0.0, 0.0, 0.0, 124.0, 0.0], [0.0, 0.0, 0.0, 0.0, 0.0, 106.0]], 'homogeneous_poisson': 0.24, 'poisson_ratio': 0.24, 'universal_anisotropy': 0.03, 'elastic_tensor_original': [[373.81747407617615, 97.95626527917233, 112.08888117515693, -0.00019721495605867567, -0.04675751791542657, -7.213164788385193e-05], [98.27509115676655, 317.19097438087186, 92.3350063930472, -0.00038319123611126884, -0.0010767948551342293, -8.691288483294378e-05], [113.39426522325113, 95.00624832077732, 328.246575660933, -0.00039879306152905067, 0.1029559374601446, -3.719866289060538e-05], [0.17972324216844476, 0.1854966801014258, 0.17387439312663377, 106.19899637007114, -0.0008171622169883193, 0.030058885074558395], [0.0324540878320497, 0.05723355774428156, 0.061343691690254776, -0.0016201631226680593, 113.036982143228, 0.006290369673791035], [-0.0052122515413683896, -0.0071280931973663215, -0.008973994995582912, -0.011183793091921706, 1.4395196426730206e-05, 123.91784624966832]], 'compliance_tensor': [[3.6, -0.8, -0.7, 0.0, 0.0, 0.0], [-0.8, 3.6, -0.9, -0.0, -0.0, 0.0], [-0.7, -0.9, 3.1, -0.0, 0.0, -0.0], [0.0, -0.0, -0.0, 8.8, 0.0, 0.0], [0.0, -0.0, 0.0, 0.0, 8.1, -0.0], [0.0, 0.0, -0.0, 0.0, -0.0, 9.4]], 'warnings': [], 'nsites': 48}",0.0,116.0,180.0,0.03,0.24,287.68
106,mp-22191,HfFeGe,"{'Hf': 1.0, 'Fe': 1.0, 'Ge': 1.0}",0.15446623864784298,11.1212707640574,"{'G_Reuss': 89.0, 'G_VRH': 91.0, 'G_Voigt': 93.0, 'G_Voigt_Reuss_Hill': 91.0, 'K_Reuss': 195.0, 'K_VRH': 197.0, 'K_Voigt': 200.0, 'K_Voigt_Reuss_Hill': 197.0, 'elastic_anisotropy': 0.25, 'elastic_tensor': [[329.0, 161.0, 143.0, 0.0, 0.0, 0.0], [161.0, 329.0, 143.0, 0.0, 0.0, 0.0], [143.0, 143.0, 248.0, 0.0, 0.0, 0.0], [0.0, 0.0, 0.0, 114.0, 0.0, 0.0], [0.0, 0.0, 0.0, 0.0, 114.0, 0.0], [0.0, 0.0, 0.0, 0.0, 0.0, 84.0]], 'homogeneous_poisson': 0.3, 'poisson_ratio': 0.3, 'universal_anisotropy': 0.25, 'elastic_tensor_original': [[382.9544394603414, 194.29858912558072, 145.6659535635833, 0.0, 0.0, 0.0], [118.8756608486293, 284.3520619761788, 148.50556673941156, 0.0, 0.0, 0.0], [139.03541612505904, 139.03536035066318, 248.17988909616858, 0.0, 0.0, 0.0], [0.30708516955607146, 0.4220416721564324, 0.27642309330184706, 113.55560544981219, 0.0, 0.0], [-0.3338353885940865, 0.2151108237038338, 0.060649028432601435, 0.0, 113.63187423901984, 0.0], [9.02549201018442, 8.47029934685752, -4.8114903996443665, 0.0, 0.0, 79.21381855079574]], 'compliance_tensor': [[4.5, -1.4, -1.8, 0.0, 0.0, -0.0], [-1.4, 4.5, -1.8, -0.0, -0.0, -0.0], [-1.8, -1.8, 6.1, 0.0, 0.0, 0.0], [-0.0, -0.0, 0.0, 8.8, -0.0, -0.0], [0.0, -0.0, 0.0, -0.0, 8.8, -0.0], [-0.0, -0.0, 0.0, -0.0, -0.0, 11.9]], 'warnings': [], 'nsites': 9}",0.0,91.0,197.0,0.25,0.3,236.6
107,mp-23804,Mg2FeH6,"{'Mg': 2.0, 'Fe': 1.0, 'H': 6.0}",0.1199095288130903,2.7767773872587216,"{'G_Reuss': 61.0, 'G_VRH': 61.0, 'G_Voigt': 61.0, 'G_Voigt_Reuss_Hill': 61.0, 'K_Reuss': 79.0, 'K_VRH': 79.0, 'K_Voigt': 79.0, 'K_Voigt_Reuss_Hill': 79.0, 'elastic_anisotropy': 0.01, 'elastic_tensor': [[165.0, 37.0, 37.0, 0.0, 0.0, 0.0], [37.0, 165.0, 37.0, 0.0, 0.0, 0.0], [37.0, 37.0, 165.0, 0.0, 0.0, 0.0], [0.0, 0.0, 0.0, 59.0, 0.0, 0.0], [0.0, 0.0, 0.0, 0.0, 59.0, 0.0], [0.0, 0.0, 0.0, 0.0, 0.0, 59.0]], 'homogeneous_poisson': 0.19, 'poisson_ratio': 0.19, 'universal_anisotropy': 0.01, 'elastic_tensor_original': [[164.99135845288794, 36.383155955309846, 36.383155955309846, 0.0, 0.0, 0.0], [36.64610942581129, 164.84142540949878, 36.64610942581129, 0.0, 0.0, 0.0], [36.64005578550216, 36.64005578550216, 164.81878928793648, 0.0, 0.0, 0.0], [0.0005391060981373875, 0.0005422560948166605, 0.0005536060828462954, 58.79577015528625, 0.0, 0.0], [0.0004885394847973314, 0.0005249027797826019, 0.0005352961021555186, 0.0, 58.79574905197518, 0.0], [0.00016404982699725276, 9.710323093071145e-05, 9.298323527536735e-05, 0.0, 0.0, 58.79571990867256]], 'compliance_tensor': [[6.6, -1.2, -1.2, -0.0, -0.0, -0.0], [-1.2, 6.6, -1.2, -0.0, -0.0, -0.0], [-1.2, -1.2, 6.6, -0.0, -0.0, -0.0], [-0.0, -0.0, -0.0, 17.0, 0.0, 0.0], [-0.0, -0.0, -0.0, 0.0, 17.0, 0.0], [-0.0, -0.0, -0.0, 0.0, 0.0, 17.0]], 'warnings': [], 'nsites': 9}",0.0,61.0,79.0,0.01,0.19,145.18
108,mp-3035,Ce(FeSi)2,"{'Ce': 1.0, 'Fe': 2.0, 'Si': 2.0}",0.15386968756067726,6.676438879050526,"{'G_Reuss': 74.0, 'G_VRH': 76.0, 'G_Voigt': 78.0, 'G_Voigt_Reuss_Hill': 76.0, 'K_Reuss': 142.0, 'K_VRH': 144.0, 'K_Voigt': 145.0, 'K_Voigt_Reuss_Hill': 144.0, 'elastic_anisotropy': 0.24, 'elastic_tensor': [[241.0, 130.0, 90.0, 0.0, 0.0, 0.0], [130.0, 241.0, 90.0, 0.0, 0.0, 0.0], [90.0, 90.0, 207.0, 0.0, 0.0, 0.0], [0.0, 0.0, 0.0, 80.0, 0.0, 0.0], [0.0, 0.0, 0.0, 0.0, 80.0, 0.0], [0.0, 0.0, 0.0, 0.0, 0.0, 102.0]], 'homogeneous_poisson': 0.28, 'poisson_ratio': 0.28, 'universal_anisotropy': 0.24, 'elastic_tensor_original': [[240.5970932705649, 129.62651926949474, 92.57537434432784, 0.0, 0.0, 0.0], [129.62651926949468, 240.5970932705648, 92.57537434432777, 1.9452522385190147e-07, 0.0, 0.0], [87.405678352877, 87.405678352877, 206.54612472347506, 0.0, 0.0, 0.0], [0.0, 1.6741078210511607e-07, 0.0, 79.67145311875896, 0.0, -8.370541988985245e-08], [-1.6741078294272223e-07, 0.0, 0.0, 0.0, 79.67145311875898, 8.370534476153096e-08], [1.0223431302325958, -1.0223431302326011, 0.0, 9.879252355224325e-08, 0.0, 102.22811898820737]], 'compliance_tensor': [[6.2, -2.8, -1.5, -0.0, 0.0, 0.0], [-2.8, 6.2, -1.5, 0.0, -0.0, 0.0], [-1.5, -1.5, 6.1, 0.0, 0.0, 0.0], [-0.0, 0.0, 0.0, 12.6, 0.0, 0.0], [0.0, -0.0, 0.0, 0.0, 12.6, 0.0], [0.0, 0.0, 0.0, 0.0, 0.0, 9.8]], 'warnings': ['Contains a rare earth element'], 'nsites': 5}",0.0,76.0,144.0,0.24,0.28,194.56
109,mp-3618,Sc2FeSi2,"{'Sc': 2.0, 'Fe': 1.0, 'Si': 2.0}",0.11957588545877704,4.124423887485785,"{'G_Reuss': 75.0, 'G_VRH': 75.0, 'G_Voigt': 76.0, 'G_Voigt_Reuss_Hill': 75.0, 'K_Reuss': 120.0, 'K_VRH': 120.0, 'K_Voigt': 120.0, 'K_Voigt_Reuss_Hill': 120.0, 'elastic_anisotropy': 0.11, 'elastic_tensor': [[198.0, 76.0, 75.0, 0.0, 6.0, 0.0], [76.0, 217.0, 79.0, 0.0, 1.0, 0.0], [75.0, 79.0, 205.0, 0.0, 6.0, 0.0], [0.0, 0.0, 0.0, 80.0, 0.0, -8.0], [6.0, 1.0, 6.0, 0.0, 86.0, 0.0], [0.0, 0.0, 0.0, -8.0, 0.0, 84.0]], 'homogeneous_poisson': 0.24, 'poisson_ratio': 0.24, 'universal_anisotropy': 0.11, 'elastic_tensor_original': [[209.2552249635438, 76.45794792629141, 58.891484642547084, 0.0, 6.035729487371099, 0.0], [77.25311295213423, 217.1809728192456, 77.11004062406016, 0.0, -2.5458888874188985, 0.0], [58.988915357990365, 78.36164369693668, 226.39836711064777, 0.0, -14.887235301301214, 0.0], [6.85198677250756e-05, -0.00015701636355076968, 1.710996697012281e-05, 76.2188771756268, -0.00017331966541276375, 6.632015383807724], [5.875879438134184, -1.0484195639596263, -15.954695187416853, 0.0, 69.8959128177924, 0.0], [0.0003609769835180069, 0.0001060338985072069, 0.00035448708602022643, 5.784715541101865, -0.0003517397086545286, 88.13730445773714]], 'compliance_tensor': [[6.3, -1.6, -1.7, 0.0, -0.3, 0.0], [-1.6, 5.7, -1.6, 0.0, 0.1, 0.0], [-1.7, -1.6, 6.2, 0.0, -0.3, 0.0], [0.0, 0.0, 0.0, 12.6, 0.0, 1.3], [-0.3, 0.1, -0.3, 0.0, 11.6, 0.0], [0.0, 0.0, 0.0, 1.3, 0.0, 12.0]], 'warnings': [], 'nsites': 10}",0.0,75.0,120.0,0.11,0.24,186.0
110,mp-4488,Sr(FeAs)2,"{'Sr': 1.0, 'Fe': 2.0, 'As': 2.0}",0.18785084506156496,6.319998733248389,"{'G_Reuss': 38.0, 'G_VRH': 42.0, 'G_Voigt': 46.0, 'G_Voigt_Reuss_Hill': 42.0, 'K_Reuss': 72.0, 'K_VRH': 78.0, 'K_Voigt': 83.0, 'K_Voigt_Reuss_Hill': 78.0, 'elastic_anisotropy': 1.1, 'elastic_tensor': [[165.0, 54.0, 58.0, 0.0, 0.0, 0.0], [54.0, 165.0, 58.0, 0.0, 0.0, 0.0], [58.0, 58.0, 78.0, 0.0, 0.0, 0.0], [0.0, 0.0, 0.0, 42.0, 0.0, 0.0], [0.0, 0.0, 0.0, 0.0, 42.0, 0.0], [0.0, 0.0, 0.0, 0.0, 0.0, 66.0]], 'homogeneous_poisson': 0.27, 'poisson_ratio': 0.27, 'universal_anisotropy': 1.1, 'elastic_tensor_original': [[165.254711987663, 53.764135241624764, 56.75075783378181, 0.0, 0.0, 0.0], [53.64571729358091, 165.25385671036452, 56.69582531350961, 0.0, 0.0, 0.0], [60.20288532218435, 60.20288532218435, 77.71217284117363, 0.0, 0.0, 0.0], [-0.00016832691788867807, 8.688012966621237e-05, -3.9390058787914675e-05, 41.691941154037025, 0.0, 0.0], [7.79434496623288e-05, -0.00017263359098418796, -4.729673725543279e-05, 0.0, 41.691937484031556, 0.0], [-1.4160020100990222e-05, -1.3036685173490165e-05, -1.1373349478507063e-05, 0.0, 0.0, 66.08339586303939]], 'compliance_tensor': [[8.3, -0.7, -5.7, 0.0, 0.0, 0.0], [-0.7, 8.3, -5.7, 0.0, 0.0, 0.0], [-5.7, -5.7, 21.5, -0.0, 0.0, 0.0], [0.0, 0.0, -0.0, 24.0, 0.0, 0.0], [0.0, 0.0, 0.0, 0.0, 24.0, -0.0], [0.0, 0.0, 0.0, 0.0, -0.0, 15.1]], 'warnings': [], 'nsites': 5}",0.0,42.0,78.0,1.1,0.27,106.68
111,mp-4595,VFe2Si,"{'V': 1.0, 'Fe': 2.0, 'Si': 1.0}",0.17560167243740976,7.112631276806602,"{'G_Reuss': 13.0, 'G_VRH': 44.0, 'G_Voigt': 74.0, 'G_Voigt_Reuss_Hill': 44.0, 'K_Reuss': 246.0, 'K_VRH': 246.0, 'K_Voigt': 246.0, 'K_Voigt_Reuss_Hill': 246.0, 'elastic_anisotropy': 22.73, 'elastic_tensor': [[253.0, 242.0, 242.0, 0.0, 0.0, 0.0], [242.0, 253.0, 242.0, 0.0, 0.0, 0.0], [242.0, 242.0, 253.0, 0.0, 0.0, 0.0], [0.0, 0.0, 0.0, 119.0, 0.0, 0.0], [0.0, 0.0, 0.0, 0.0, 119.0, 0.0], [0.0, 0.0, 0.0, 0.0, 0.0, 119.0]], 'homogeneous_poisson': 0.42, 'poisson_ratio': 0.42, 'universal_anisotropy': 22.73, 'elastic_tensor_original': [[253.32963834204315, 241.91994143480613, 241.91994143480613, 0.0, 0.0, 0.0], [241.86009754916716, 253.2855319267109, 241.86009754916716, 0.0, 0.0, 0.0], [241.73943072672668, 241.73943072672668, 253.17449477634548, 0.0, 0.0, 0.0], [-4.754329406435293e-05, 0.0007856826844003896, 0.0006236294849150569, 119.3304082260153, 0.0, 0.0], [0.0010930324305485212, -0.0004853429324651499, 0.00011790990261262815, 0.0, 119.32973279323986, 0.0], [-7.007327545617664e-05, -6.890327642275295e-05, 0.0003208664016490036, 0.0, 0.0, 119.32973140990764]], 'compliance_tensor': [[58.8, -28.7, -28.7, -0.0, 0.0, 0.0], [-28.7, 58.8, -28.7, 0.0, -0.0, -0.0], [-28.7, -28.7, 58.8, 0.0, 0.0, -0.0], [-0.0, 0.0, 0.0, 8.4, -0.0, -0.0], [0.0, -0.0, 0.0, -0.0, 8.4, -0.0], [0.0, -0.0, -0.0, -0.0, -0.0, 8.4]], 'warnings': ['c11 and c12 are within 5% or c12 is greater than c11', 'c11 and c13 are within 5% or c13 is greater than c11', 'c11 and c23 are within 5% or c23 is greater than c11'], 'nsites': 4}",0.0,44.0,246.0,22.73,0.42,124.96
112,mp-510281,FeCuO2,"{'Fe': 1.0, 'Cu': 1.0, 'O': 2.0}",0.46204886945941853,5.361834298244193,"{'G_Reuss': 41.0, 'G_VRH': 50.0, 'G_Voigt': 60.0, 'G_Voigt_Reuss_Hill': 50.0, 'K_Reuss': 133.0, 'K_VRH': 143.0, 'K_Voigt': 154.0, 'K_Voigt_Reuss_Hill': 143.0, 'elastic_anisotropy': 2.4, 'elastic_tensor': [[201.0, 69.0, 105.0, -0.0, 0.0, 0.0], [69.0, 201.0, 105.0, 0.0, 0.0, 0.0], [105.0, 105.0, 425.0, 0.0, 0.0, 0.0], [-0.0, 0.0, 0.0, 25.0, 0.0, 0.0], [0.0, 0.0, 0.0, 0.0, 25.0, -0.0], [0.0, 0.0, 0.0, 0.0, -0.0, 66.0]], 'homogeneous_poisson': 0.34, 'poisson_ratio': 0.34, 'universal_anisotropy': 2.4, 'elastic_tensor_original': [[200.85767327665758, 68.79932180582371, 103.36351020169771, 0.28117013653962747, 0.0, 0.0], [69.26890754735085, 201.5970516242702, 103.54297524678002, -0.9729339561300988, 0.0, 0.0], [107.12512694885271, 107.12518036701593, 424.8994163536602, 0.0, 0.0, 0.0], [-0.24340471281380208, 0.26538915947565234, -0.012643523001718053, 24.658330592978764, 0.0, 0.0], [-1.189029217373919e-05, 6.526197546869842e-06, 4.2193107762231905e-05, 4.431359176711272e-05, 24.581510141033384, -0.26571451524135775], [0.00022563057222126982, 0.000295224025563988, 0.00035660079463118236, 7.251693988243664e-05, 0.04937495339975892, 65.87887470624754]], 'compliance_tensor': [[6.1, -1.5, -1.1, 0.0, -0.0, 0.0], [-1.5, 6.1, -1.1, -0.0, 0.0, 0.0], [-1.1, -1.1, 2.9, -0.0, 0.0, -0.0], [0.0, -0.0, -0.0, 40.6, 0.0, 0.0], [-0.0, 0.0, 0.0, 0.0, 40.6, 0.0], [0.0, 0.0, -0.0, 0.0, 0.0, 15.2]], 'warnings': [], 'nsites': 8}",0.0,50.0,143.0,2.4,0.34,134.0
113,mp-540809,Zr2Fe12P7,"{'Zr': 2.0, 'Fe': 12.0, 'P': 7.0}",0.16975722021180134,7.290370076772893,"{'G_Reuss': 126.0, 'G_VRH': 127.0, 'G_Voigt': 128.0, 'G_Voigt_Reuss_Hill': 127.0, 'K_Reuss': 216.0, 'K_VRH': 216.0, 'K_Voigt': 216.0, 'K_Voigt_Reuss_Hill': 216.0, 'elastic_anisotropy': 0.09, 'elastic_tensor': [[372.0, 142.0, 140.0, 0.0, 0.0, 0.0], [142.0, 372.0, 140.0, 0.0, 0.0, 0.0], [140.0, 140.0, 357.0, 0.0, 0.0, 0.0], [0.0, 0.0, 0.0, 149.0, 0.0, 0.0], [0.0, 0.0, 0.0, 0.0, 149.0, 0.0], [0.0, 0.0, 0.0, 0.0, 0.0, 115.0]], 'homogeneous_poisson': 0.25, 'poisson_ratio': 0.25, 'universal_anisotropy': 0.09, 'elastic_tensor_original': [[375.2112682003967, 135.214793023028, 137.08431518577996, 0.0, 0.0, -0.150397166727434], [138.86704638310164, 379.0838172379231, 140.53507148954168, 0.0, 0.0, -0.1994322151902338], [141.13657908715115, 141.13653899251523, 356.7293125132571, 0.0, 0.0, 1.3030600615098244e-05], [-0.00048186691969759137, -0.00044681023462436753, -0.0004327902272579972, 148.82079671994566, 0.024148102680300473, 3.542335193431812e-05], [0.09205853555787814, 0.10685712865734305, 0.07876169079266541, 0.0004961572176144359, 148.77906525537702, -0.005650552941209138], [2.9463921842337695, 1.5640706786461, 0.34464259816048187, 0.0, 0.0, 109.99029358599236]], 'compliance_tensor': [[3.4, -0.9, -1.0, -0.0, -0.0, -0.0], [-0.9, 3.4, -1.0, -0.0, 0.0, -0.0], [-1.0, -1.0, 3.6, 0.0, 0.0, 0.0], [-0.0, -0.0, 0.0, 6.7, -0.0, -0.0], [0.0, -0.0, 0.0, -0.0, 6.7, -0.0], [-0.0, -0.0, 0.0, -0.0, 0.0, 8.7]], 'warnings': [], 'nsites': 21}",0.0,127.0,216.0,0.09,0.25,317.5
114,mp-865179,Hf2FeOs,"{'Hf': 2.0, 'Fe': 1.0, 'Os': 1.0}",0.13636325971507504,15.144160510755144,"{'G_Reuss': 93.0, 'G_VRH': 94.0, 'G_Voigt': 96.0, 'G_Voigt_Reuss_Hill': 94.0, 'K_Reuss': 196.0, 'K_VRH': 196.0, 'K_Voigt': 196.0, 'K_Voigt_Reuss_Hill': 196.0, 'elastic_anisotropy': 0.15, 'elastic_tensor': [[351.0, 118.0, 118.0, 0.0, 0.0, 0.0], [118.0, 351.0, 118.0, 0.0, 0.0, 0.0], [118.0, 118.0, 351.0, 0.0, 0.0, 0.0], [0.0, 0.0, 0.0, 82.0, 0.0, 0.0], [0.0, 0.0, 0.0, 0.0, 82.0, 0.0], [0.0, 0.0, 0.0, 0.0, 0.0, 82.0]], 'homogeneous_poisson': 0.29, 'poisson_ratio': 0.29, 'universal_anisotropy': 0.15, 'elastic_tensor_original': [[354.3331926142815, 117.42272853537789, 117.42078379487793, -0.00011500506729874919, 9.619845064494397e-05, 2.3778941739246262e-05], [118.81163974172827, 349.1155414012031, 118.81163974172827, 0.0, 0.0, 0.0], [118.54241980721237, 118.54241980721237, 348.83509366984225, 0.0, 0.0, 0.0], [-0.0011348110586461009, -0.0010781177450685244, -0.001078027713758055, 82.15571093033442, 0.0, 0.0], [-0.001530285922869673, -0.0016243426250502483, -0.0015282625127126738, 0.0, 82.15557063035708, 0.0], [-0.0005202078463340911, -0.00048511112043845265, -0.00044201449311388215, 0.0, 0.0, 82.15550970032955]], 'compliance_tensor': [[3.4, -0.9, -0.9, -0.0, -0.0, 0.0], [-0.9, 3.4, -0.9, 0.0, -0.0, -0.0], [-0.9, -0.9, 3.4, -0.0, 0.0, -0.0], [-0.0, 0.0, -0.0, 12.2, -0.0, -0.0], [-0.0, -0.0, 0.0, -0.0, 12.2, -0.0], [0.0, -0.0, -0.0, -0.0, -0.0, 12.2]], 'warnings': [], 'nsites': 4}",0.0,94.0,196.0,0.15,0.29,242.52
115,mp-865490,V2CrFe,"{'V': 2.0, 'Cr': 1.0, 'Fe': 1.0}",0.21125710640798703,7.348434423639102,"{'G_Reuss': 100.0, 'G_VRH': 107.0, 'G_Voigt': 114.0, 'G_Voigt_Reuss_Hill': 107.0, 'K_Reuss': 232.0, 'K_VRH': 232.0, 'K_Voigt': 232.0, 'K_Voigt_Reuss_Hill': 232.0, 'elastic_anisotropy': 0.68, 'elastic_tensor': [[453.0, 121.0, 121.0, 0.0, 0.0, 0.0], [121.0, 453.0, 121.0, 0.0, 0.0, 0.0], [121.0, 121.0, 453.0, 0.0, 0.0, 0.0], [0.0, 0.0, 0.0, 79.0, 0.0, 0.0], [0.0, 0.0, 0.0, 0.0, 79.0, 0.0], [0.0, 0.0, 0.0, 0.0, 0.0, 79.0]], 'homogeneous_poisson': 0.3, 'poisson_ratio': 0.3, 'universal_anisotropy': 0.68, 'elastic_tensor_original': [[452.9643910994005, 121.54247322331065, 121.54247322331065, 0.0, 0.0, 0.0], [121.37482333627398, 453.1994250648695, 121.37482333627398, 0.0, 0.0, 0.0], [121.40286572116413, 121.40286572116413, 451.7344547447693, 0.0, 0.0, 0.0], [0.0003416804238900236, 0.00035165710293263666, 0.000345337095091701, 79.25308954794394, 0.0, 0.0], [0.00015619019376986442, 0.0001779635541172266, 0.00017886022189387763, 0.0, 79.26061912061847, 0.0], [-0.10388317221065745, -0.17587427818939522, -0.13830220824420153, 0.0, 0.0, 79.25679924921288]], 'compliance_tensor': [[2.5, -0.5, -0.5, -0.0, 0.0, -0.0], [-0.5, 2.5, -0.5, -0.0, -0.0, 0.0], [-0.5, -0.5, 2.5, 0.0, -0.0, -0.0], [-0.0, -0.0, 0.0, 12.6, -0.0, -0.0], [0.0, -0.0, -0.0, -0.0, 12.6, -0.0], [-0.0, 0.0, -0.0, -0.0, -0.0, 12.6]], 'warnings': [], 'nsites': 4}",0.0,107.0,232.0,0.68,0.3,278.2
116,mp-961673,TiFeTe,"{'Ti': 1.0, 'Fe': 1.0, 'Te': 1.0}",0.2797864537394527,7.544316549414458,"{'G_Reuss': 80.0, 'G_VRH': 80.0, 'G_Voigt': 81.0, 'G_Voigt_Reuss_Hill': 80.0, 'K_Reuss': 153.0, 'K_VRH': 153.0, 'K_Voigt': 153.0, 'K_Voigt_Reuss_Hill': 153.0, 'elastic_anisotropy': 0.04, 'elastic_tensor': [[273.0, 93.0, 93.0, 0.0, 0.0, 0.0], [93.0, 273.0, 93.0, 0.0, 0.0, 0.0], [93.0, 93.0, 273.0, 0.0, 0.0, 0.0], [0.0, 0.0, 0.0, 75.0, 0.0, 0.0], [0.0, 0.0, 0.0, 0.0, 75.0, 0.0], [0.0, 0.0, 0.0, 0.0, 0.0, 75.0]], 'homogeneous_poisson': 0.28, 'poisson_ratio': 0.28, 'universal_anisotropy': 0.04, 'elastic_tensor_original': [[273.2419198102873, 93.36451279899059, 93.3646081981856, 1.579986668220561e-05, -0.00031039738089598865, 0.00010819908702624346], [93.3647032247851, 273.2419198095196, 93.36470341086562, 4.759812101578091e-05, -0.00015861956507777627, 7.873312871055897e-05], [93.36460819815868, 93.36451279894322, 273.24191981020874, 1.642231562480956e-05, -0.00031039738070055633, 4.7675353581881635e-05], [0.0, 0.0, 2.5357400443427693e-05, 74.59538242847755, 1.272905552011004e-05, -6.339347279038535e-05], [-0.00012678693970544853, 0.0, -0.00012678691758066346, 2.5307023903588676e-05, 74.59538242847127, 0.0], [2.5357392528928423e-05, 5.07147762207869e-05, 0.0, -6.339346850189129e-05, 1.2628324985178703e-05, 74.59538242847334]], 'compliance_tensor': [[4.4, -1.1, -1.1, 0.0, 0.0, -0.0], [-1.1, 4.4, -1.1, -0.0, -0.0, -0.0], [-1.1, -1.1, 4.4, -0.0, 0.0, 0.0], [0.0, -0.0, -0.0, 13.4, -0.0, 0.0], [0.0, -0.0, 0.0, -0.0, 13.4, -0.0], [-0.0, -0.0, 0.0, 0.0, -0.0, 13.4]], 'warnings': [], 'nsites': 3}",0.0,80.0,153.0,0.04,0.28,204.8