,mp_id,Formula,Composition,IPF,Density,Elastic_Tensor,E_above_Hull,G_VRH,K_VRH,Elastic_Anisotropy,poisson_ratio,Y_Modulus
117,mp-1018895,PrFeSi,"{'Pr': 1.0, 'Fe': 1.0, 'Si': 1.0}",0.14052708255416846,6.364388156200222,"{'G_Reuss': 36.0, 'G_VRH': 42.0, 'G_Voigt': 49.0, 'G_Voigt_Reuss_Hill': 42.0, 'K_Reuss': 51.0, 'K_VRH': 61.0, 'K_Voigt': 70.0, 'K_Voigt_Reuss_Hill': 61.0, 'elastic_anisotropy': 2.04, 'elastic_tensor': [[175.0, 44.0, 34.0, 0.0, 0.0, 0.0], [44.0, 175.0, 34.0, 0.0, 0.0, 0.0], [34.0, 34.0, 56.0, 0.0, 0.0, 0.0], [0.0, 0.0, 0.0, 29.0, 0.0, 0.0], [0.0, 0.0, 0.0, 0.0, 29.0, 0.0], [0.0, 0.0, 0.0, 0.0, 0.0, 86.0]], 'homogeneous_poisson': 0.22, 'poisson_ratio': 0.22, 'universal_anisotropy': 2.04, 'elastic_tensor_original': [[175.28804600119443, 44.337241090584016, 40.23010627528581, 0.0, 0.0, 0.0], [44.337241090584016, 175.28804600119443, 40.2301062752858, 0.0, 0.0, 0.0], [27.9419047453456, 27.9419047453456, 56.141184648534, 0.0, 0.0, 0.0], [0.0, 0.0, 0.0, 29.254743646935683, 0.0, 0.0], [0.0, 0.0, 0.0, 0.0, 29.254743646935673, 0.0], [0.8603083589729398, -0.8603083589729398, 0.0, 0.0, 0.0, 86.02594143080921]], 'compliance_tensor': [[6.6, -1.0, -3.4, 0.0, 0.0, -0.0], [-1.0, 6.6, -3.4, 0.0, 0.0, 0.0], [-3.4, -3.4, 21.9, 0.0, 0.0, 0.0], [0.0, 0.0, 0.0, 34.2, 0.0, 0.0], [0.0, 0.0, 0.0, 0.0, 34.2, 0.0], [-0.0, 0.0, 0.0, 0.0, 0.0, 11.6]], 'warnings': ['Contains a rare earth element'], 'nsites': 6}",0.0,42.0,61.0,2.04,0.22,102.48
118,mp-11202,Y6FeSb2,"{'Y': 6.0, 'Fe': 1.0, 'Sb': 2.0}",0.14630713364471787,5.6743866817132185,"{'G_Reuss': 34.0, 'G_VRH': 35.0, 'G_Voigt': 35.0, 'G_Voigt_Reuss_Hill': 35.0, 'K_Reuss': 59.0, 'K_VRH': 59.0, 'K_Voigt': 59.0, 'K_Voigt_Reuss_Hill': 59.0, 'elastic_anisotropy': 0.25, 'elastic_tensor': [[104.0, 41.0, 40.0, 0.0, 0.0, 0.0], [41.0, 104.0, 40.0, 0.0, 0.0, 0.0], [40.0, 40.0, 85.0, 0.0, 0.0, 0.0], [0.0, 0.0, 0.0, 44.0, 0.0, 0.0], [0.0, 0.0, 0.0, 0.0, 44.0, 0.0], [0.0, 0.0, 0.0, 0.0, 0.0, 31.0]], 'homogeneous_poisson': 0.25, 'poisson_ratio': 0.25, 'universal_anisotropy': 0.25, 'elastic_tensor_original': [[104.10500493952189, 40.95972362740751, 39.78948915470598, 0.0, 0.0, 3.716277923614668e-06], [40.798453688385756, 103.68029740226488, 39.64107662749229, 0.0, 0.0, 7.259599570204217e-06], [39.543310619601264, 39.54330389944592, 84.70161695164778, 0.0, 0.0, 2.759981645808826e-06], [0.0026031449151962143, 0.003774810117721927, 0.002911885082234508, 44.19001848726384, 3.0933335851003605e-06, 6.666664058013376e-09], [0.017201634312572402, 0.01501927420271657, 0.012996029994741632, 2.666666130772092e-08, 44.18131057583677, 0.0], [-0.124196968328841, -0.13964378456733312, -0.11618517604929979, 0.0, 0.0, 30.925647647278605]], 'compliance_tensor': [[12.7, -3.4, -4.3, 0.0, -0.0, -0.0], [-3.4, 12.7, -4.3, -0.0, -0.0, -0.0], [-4.3, -4.3, 15.9, -0.0, 0.0, 0.0], [0.0, 0.0, -0.0, 22.6, -0.0, 0.0], [0.0, -0.0, 0.0, -0.0, 22.6, 0.0], [-0.0, -0.0, 0.0, 0.0, 0.0, 32.0]], 'warnings': [], 'nsites': 9}",0.0,35.0,59.0,0.25,0.25,87.5
119,mp-19421,FeWO4,"{'Fe': 1.0, 'W': 1.0, 'O': 4.0}",0.5342803459794407,7.090244770279603,"{'G_Reuss': 51.0, 'G_VRH': 54.0, 'G_Voigt': 57.0, 'G_Voigt_Reuss_Hill': 54.0, 'K_Reuss': 141.0, 'K_VRH': 141.0, 'K_Voigt': 142.0, 'K_Voigt_Reuss_Hill': 141.0, 'elastic_anisotropy': 0.62, 'elastic_tensor': [[261.0, 95.0, 100.0, 0.0, -19.0, 0.0], [95.0, 217.0, 104.0, 0.0, 6.0, 0.0], [100.0, 104.0, 200.0, 0.0, 1.0, 0.0], [0.0, 0.0, 0.0, 30.0, 0.0, -3.0], [-19.0, 6.0, 1.0, 0.0, 70.0, 0.0], [0.0, 0.0, 0.0, -3.0, 0.0, 61.0]], 'homogeneous_poisson': 0.33, 'poisson_ratio': 0.33, 'universal_anisotropy': 0.62, 'elastic_tensor_original': [[216.82275381077872, 102.47177249575014, 95.23977632254764, 5.766297109510349, 0.0, 0.0], [105.08680276561539, 200.44872361760466, 100.35269513874141, 0.057352485082954645, 0.0, 0.0], [94.99643452448618, 100.37397170560132, 260.60885002504546, -18.830151257651988, 0.0, 0.0], [5.797160745908353, 1.7883301079326301, -18.400649750639925, 69.94701199709642, 0.0, 0.0], [0.09326596873889237, -0.09217633582700192, -0.15121619025148333, 0.050169387479406455, 60.81254552408748, -6.043806342081385], [-0.01765289845047767, -0.027700491769193144, 0.0060784642947971455, 0.02111412827736942, 0.44852265107244815, 30.364065672921317]], 'compliance_tensor': [[5.2, -1.4, -1.9, 0.0, 1.5, 0.0], [-1.4, 6.5, -2.7, 0.0, -0.9, 0.0], [-1.9, -2.7, 7.3, 0.0, -0.4, 0.0], [0.0, 0.0, 0.0, 33.1, 0.0, 1.5], [1.5, -0.9, -0.4, 0.0, 14.8, 0.0], [0.0, 0.0, 0.0, 1.5, 0.0, 16.5]], 'warnings': [], 'nsites': 12}",0.0,54.0,141.0,0.62,0.33,143.64000000000001
120,mp-21336,TaFeP,"{'Ta': 1.0, 'Fe': 1.0, 'P': 1.0}",0.14664585366594407,11.640108246456196,"{'G_Reuss': 141.0, 'G_VRH': 143.0, 'G_Voigt': 144.0, 'G_Voigt_Reuss_Hill': 143.0, 'K_Reuss': 264.0, 'K_VRH': 264.0, 'K_Voigt': 264.0, 'K_Voigt_Reuss_Hill': 264.0, 'elastic_anisotropy': 0.1, 'elastic_tensor': [[443.0, 154.0, 193.0, 0.0, 0.0, 0.0], [154.0, 444.0, 191.0, 0.0, 0.0, 0.0], [193.0, 191.0, 412.0, 0.0, 0.0, 0.0], [0.0, 0.0, 0.0, 164.0, 0.0, 0.0], [0.0, 0.0, 0.0, 0.0, 154.0, 0.0], [0.0, 0.0, 0.0, 0.0, 0.0, 150.0]], 'homogeneous_poisson': 0.27, 'poisson_ratio': 0.27, 'universal_anisotropy': 0.1, 'elastic_tensor_original': [[412.0785572049439, 195.2173417927589, 192.73395984480854, 0.0, 0.0, 0.0], [191.5726330515263, 442.6726266984144, 154.30163646266737, 0.0, 0.0, 0.0], [189.1341223888759, 153.5774860367254, 444.18211696233965, 0.0, 0.0, 0.0], [0.0007201598941629661, 0.000640886639327381, 0.000737556585628536, 150.01504566556505, 0.0, 0.0], [-0.004034499246300465, -0.004035102581022133, -0.004092442712434369, 0.0, 163.70932941071308, 0.0], [-0.03128949327424387, -0.031627394029551274, -0.03067065855764257, 0.0, 0.0, 153.76907437427607]], 'compliance_tensor': [[2.9, -0.5, -1.1, 0.0, 0.0, 0.0], [-0.5, 2.9, -1.1, 0.0, -0.0, 0.0], [-1.1, -1.1, 3.5, 0.0, -0.0, 0.0], [0.0, 0.0, 0.0, 6.1, 0.0, 0.0], [0.0, -0.0, -0.0, 0.0, 6.5, 0.0], [0.0, 0.0, 0.0, 0.0, 0.0, 6.7]], 'warnings': [], 'nsites': 12}",0.0,143.0,264.0,0.1,0.27,363.22
121,mp-22152,NaFeAs,"{'Na': 1.0, 'Fe': 1.0, 'As': 1.0}",0.19410324245881008,4.793908386613678,"{'G_Reuss': 30.0, 'G_VRH': 32.0, 'G_Voigt': 35.0, 'G_Voigt_Reuss_Hill': 32.0, 'K_Reuss': 47.0, 'K_VRH': 50.0, 'K_Voigt': 54.0, 'K_Voigt_Reuss_Hill': 50.0, 'elastic_anisotropy': 0.9, 'elastic_tensor': [[117.0, 37.0, 30.0, 0.0, 0.0, 0.0], [37.0, 117.0, 30.0, 0.0, 0.0, 0.0], [30.0, 30.0, 56.0, 0.0, 0.0, 0.0], [0.0, 0.0, 0.0, 27.0, 0.0, 0.0], [0.0, 0.0, 0.0, 0.0, 27.0, 0.0], [0.0, 0.0, 0.0, 0.0, 0.0, 56.0]], 'homogeneous_poisson': 0.23, 'poisson_ratio': 0.23, 'universal_anisotropy': 0.9, 'elastic_tensor_original': [[116.58945704176942, 36.5570896511019, 30.971940798597817, 0.0, 0.0, 0.0], [36.55760871432735, 116.59053362216198, 30.972375657238352, 0.0, 0.0, 0.0], [29.598770931059924, 29.598770931059924, 55.51094117083967, 0.0, 0.0, 0.0], [-7.416684058661042e-05, -0.00019336662450311184, -0.0002782932068086577, 26.84895110069907, 0.0, 0.0], [0.00031293351189961855, 0.00015386389499688952, 8.001695244249411e-05, 0.0, 26.849390797783123, 0.0], [4.5346733491132445e-05, -3.9333030558569256e-05, -1.627989840275417e-05, 0.0, 0.0, 55.92602175534256]], 'compliance_tensor': [[10.4, -2.1, -4.5, 0.0, 0.0, -0.0], [-2.1, 10.4, -4.5, 0.0, 0.0, 0.0], [-4.5, -4.5, 23.0, 0.0, -0.0, 0.0], [0.0, 0.0, 0.0, 37.2, 0.0, 0.0], [0.0, 0.0, -0.0, 0.0, 37.2, -0.0], [-0.0, 0.0, 0.0, 0.0, -0.0, 17.9]], 'warnings': [], 'nsites': 6}",0.0,32.0,50.0,0.9,0.23,78.72
122,mp-22701,ScFeSi,"{'Sc': 1.0, 'Fe': 1.0, 'Si': 1.0}",0.13951689756665347,4.848691540330628,"{'G_Reuss': 58.0, 'G_VRH': 62.0, 'G_Voigt': 65.0, 'G_Voigt_Reuss_Hill': 62.0, 'K_Reuss': 139.0, 'K_VRH': 139.0, 'K_Voigt': 140.0, 'K_Voigt_Reuss_Hill': 139.0, 'elastic_anisotropy': 0.62, 'elastic_tensor': [[231.0, 94.0, 82.0, 0.0, 0.0, 0.0], [94.0, 179.0, 130.0, 0.0, 0.0, 0.0], [82.0, 130.0, 241.0, 0.0, 0.0, 0.0], [0.0, 0.0, 0.0, 72.0, 0.0, 0.0], [0.0, 0.0, 0.0, 0.0, 90.0, 0.0], [0.0, 0.0, 0.0, 0.0, 0.0, 50.0]], 'homogeneous_poisson': 0.31, 'poisson_ratio': 0.31, 'universal_anisotropy': 0.62, 'elastic_tensor_original': [[241.13521248617513, 80.2326848064822, 128.81234099223937, 0.0, 0.0, 0.0], [83.5669996056165, 230.78835118698294, 93.12664360720994, 0.0, 0.0, 0.0], [132.04209210523814, 94.23076970921127, 179.02355387441636, 0.0, 0.0, 0.0], [0.23130575764440617, 0.21767100011317184, 0.2133938267049968, 49.85372393487928, 0.0, 0.0], [0.00021856314969397115, 0.0004716938195269758, 0.00019214661121227326, 0.0, 71.91748014972782, 0.0], [0.0014688081222779278, 0.0008958649332799849, 0.00087686116412771, 0.0, 0.0, 89.64083595130906]], 'compliance_tensor': [[5.5, -2.5, -0.5, 0.0, -0.0, 0.0], [-2.5, 10.4, -4.8, 0.0, -0.0, 0.0], [-0.5, -4.8, 6.9, 0.0, 0.0, 0.0], [0.0, 0.0, 0.0, 13.9, 0.0, 0.0], [-0.0, -0.0, 0.0, 0.0, 11.2, 0.0], [0.0, 0.0, 0.0, 0.0, 0.0, 20.1]], 'warnings': [], 'nsites': 12}",0.0,62.0,139.0,0.62,0.31,162.44
123,mp-22793,AlFe3C,"{'Al': 1.0, 'Fe': 3.0, 'C': 1.0}",0.17341104708130356,6.473381427944479,"{'G_Reuss': 89.0, 'G_VRH': 98.0, 'G_Voigt': 106.0, 'G_Voigt_Reuss_Hill': 98.0, 'K_Reuss': 230.0, 'K_VRH': 230.0, 'K_Voigt': 230.0, 'K_Voigt_Reuss_Hill': 230.0, 'elastic_anisotropy': 0.97, 'elastic_tensor': [[447.0, 121.0, 121.0, 0.0, 0.0, 0.0], [121.0, 447.0, 121.0, 0.0, 0.0, 0.0], [121.0, 121.0, 447.0, 0.0, 0.0, 0.0], [0.0, 0.0, 0.0, 68.0, 0.0, 0.0], [0.0, 0.0, 0.0, 0.0, 68.0, 0.0], [0.0, 0.0, 0.0, 0.0, 0.0, 68.0]], 'homogeneous_poisson': 0.31, 'poisson_ratio': 0.31, 'universal_anisotropy': 0.97, 'elastic_tensor_original': [[447.3535863504671, 121.49362533446428, 121.49362533446428, 0.0, 0.0, 0.0], [121.4919698097837, 447.35209102129534, 121.4919698097837, 0.0, 0.0, 0.0], [121.49509482357352, 121.49509482357352, 447.3542567463704, 0.0, 0.0, 0.0], [-0.00010562731241242171, -0.00017488056707054846, -8.240177992235706e-06, 68.28507752533315, 0.0, 0.0], [-0.0001619930262408064, -3.2698444470800294e-06, 6.392356147706409e-05, 0.0, 68.28470880601458, 0.0], [-0.00011406067171082916, 0.0002865925137668615, 0.00033190637134318404, 0.0, 0.0, 68.28514312577123]], 'compliance_tensor': [[2.5, -0.5, -0.5, 0.0, -0.0, 0.0], [-0.5, 2.5, -0.5, 0.0, 0.0, 0.0], [-0.5, -0.5, 2.5, 0.0, -0.0, -0.0], [0.0, 0.0, 0.0, 14.6, 0.0, 0.0], [-0.0, 0.0, -0.0, 0.0, 14.6, 0.0], [0.0, 0.0, -0.0, 0.0, 0.0, 14.6]], 'warnings': [], 'nsites': 5}",0.0,98.0,230.0,0.97,0.31,256.76
124,mp-31185,MnAlFe2,"{'Mn': 1.0, 'Al': 1.0, 'Fe': 2.0}",0.1663795746323075,7.019572565285538,"{'G_Reuss': 114.0, 'G_VRH': 122.0, 'G_Voigt': 129.0, 'G_Voigt_Reuss_Hill': 122.0, 'K_Reuss': 196.0, 'K_VRH': 196.0, 'K_Voigt': 196.0, 'K_Voigt_Reuss_Hill': 196.0, 'elastic_anisotropy': 0.67, 'elastic_tensor': [[301.0, 144.0, 144.0, 0.0, 0.0, 0.0], [144.0, 301.0, 144.0, 0.0, 0.0, 0.0], [144.0, 144.0, 301.0, 0.0, 0.0, 0.0], [0.0, 0.0, 0.0, 163.0, 0.0, 0.0], [0.0, 0.0, 0.0, 0.0, 163.0, 0.0], [0.0, 0.0, 0.0, 0.0, 0.0, 163.0]], 'homogeneous_poisson': 0.24, 'poisson_ratio': 0.24, 'universal_anisotropy': 0.67, 'elastic_tensor_original': [[302.53402889741653, 145.35353058358785, 145.35353058358785, 0.0, 0.0, 0.0], [142.83667588227658, 299.9431416598968, 142.83667588227658, 0.0, 0.0, 0.0], [142.70660002378818, 142.70660002378818, 299.8803678057459, 0.0, 0.0, 0.0], [0.00017992383891387177, 0.0006450404362166703, 0.0002108897271409185, 162.7723164837979, 0.0, 0.0], [7.915342620392451e-05, -5.614042308588563e-05, -8.029638965067779e-05, 0.0, 162.77226467950524, 0.0], [-0.0009319896816249155, -0.0005988301639737708, -0.0009003092080740705, 0.0, 0.0, 162.77186883077735]], 'compliance_tensor': [[4.8, -1.6, -1.6, 0.0, -0.0, -0.0], [-1.6, 4.8, -1.6, -0.0, 0.0, -0.0], [-1.6, -1.6, 4.8, -0.0, -0.0, 0.0], [0.0, -0.0, -0.0, 6.1, -0.0, -0.0], [-0.0, 0.0, -0.0, -0.0, 6.1, -0.0], [-0.0, -0.0, 0.0, -0.0, -0.0, 6.1]], 'warnings': [], 'nsites': 4}",0.0,122.0,196.0,0.67,0.24,302.56
125,mp-4189,Dy6FeSb2,"{'Dy': 6.0, 'Fe': 1.0, 'Sb': 2.0}",0.1801640555763463,8.715163774193382,"{'G_Reuss': 35.0, 'G_VRH': 35.0, 'G_Voigt': 36.0, 'G_Voigt_Reuss_Hill': 35.0, 'K_Reuss': 59.0, 'K_VRH': 60.0, 'K_Voigt': 60.0, 'K_Voigt_Reuss_Hill': 60.0, 'elastic_anisotropy': 0.24, 'elastic_tensor': [[108.0, 42.0, 40.0, 0.0, 0.0, 0.0], [42.0, 108.0, 40.0, 0.0, 0.0, 0.0], [40.0, 40.0, 84.0, 0.0, 0.0, 0.0], [0.0, 0.0, 0.0, 44.0, 0.0, 0.0], [0.0, 0.0, 0.0, 0.0, 44.0, 0.0], [0.0, 0.0, 0.0, 0.0, 0.0, 33.0]], 'homogeneous_poisson': 0.25, 'poisson_ratio': 0.25, 'universal_anisotropy': 0.24, 'elastic_tensor_original': [[107.39672561691685, 42.689504962048304, 42.180171563731676, 0.0, 0.0, 0.0], [42.91703158148026, 107.4730619444134, 42.45845726426011, 0.0, 0.0, 0.0], [37.721740299609664, 37.721739899614796, 83.66003883948788, 0.0, 0.0, 0.0], [0.0, 0.0, 0.0, 44.457323102823054, 0.0, 0.0], [0.0, 0.0, 0.0, 0.0, 44.2149998341705, 0.0], [4.68583946115211e-06, 0.0, 0.0, 0.0, 0.0, 33.38153837781906]], 'compliance_tensor': [[12.1, -3.1, -4.3, 0.0, 0.0, -0.0], [-3.1, 12.1, -4.3, 0.0, 0.0, -0.0], [-4.3, -4.3, 16.0, 0.0, 0.0, 0.0], [0.0, 0.0, 0.0, 22.6, -0.0, 0.0], [0.0, 0.0, 0.0, -0.0, 22.6, 0.0], [-0.0, -0.0, 0.0, 0.0, 0.0, 30.4]], 'warnings': ['Contains a rare earth element'], 'nsites': 9}",0.0,35.0,60.0,0.24,0.25,87.5
126,mp-510624,SrFeO3,"{'Sr': 1.0, 'Fe': 1.0, 'O': 3.0}",0.6235820148808287,5.3056988684625415,"{'G_Reuss': 83.0, 'G_VRH': 83.0, 'G_Voigt': 83.0, 'G_Voigt_Reuss_Hill': 83.0, 'K_Reuss': 131.0, 'K_VRH': 131.0, 'K_Voigt': 131.0, 'K_Voigt_Reuss_Hill': 131.0, 'elastic_anisotropy': 0.0, 'elastic_tensor': [[238.0, 78.0, 78.0, 0.0, 0.0, 0.0], [78.0, 238.0, 78.0, 0.0, 0.0, 0.0], [78.0, 78.0, 238.0, 0.0, 0.0, 0.0], [0.0, 0.0, 0.0, 86.0, 0.0, 0.0], [0.0, 0.0, 0.0, 0.0, 86.0, 0.0], [0.0, 0.0, 0.0, 0.0, 0.0, 86.0]], 'homogeneous_poisson': 0.24, 'poisson_ratio': 0.24, 'universal_anisotropy': 0.0, 'elastic_tensor_original': [[238.39786608604433, 77.86721682110043, 77.86721682110043, 0.0, 0.0, 0.0], [77.86448934158487, 238.3946987764249, 77.86448934158487, 0.0, 0.0, 0.0], [77.88085839531647, 77.88085839531647, 238.4096708795026, 0.0, 0.0, 0.0], [-0.00041829289506105756, -0.000315746335839112, -0.000371932943635546, 85.54242176175217, 0.0, 0.0], [-4.214662250671826e-05, -0.00010627655531384434, -4.786994984358239e-05, 0.0, 85.54260013156527, 0.0], [-0.0010055322797731666, -0.0011339088119316197, -0.0011537954577618662, 0.0, 0.0, 85.54263786819241]], 'compliance_tensor': [[5.0, -1.2, -1.2, 0.0, 0.0, -0.0], [-1.2, 5.0, -1.2, -0.0, 0.0, -0.0], [-1.2, -1.2, 5.0, -0.0, -0.0, -0.0], [0.0, -0.0, -0.0, 11.7, 0.0, 0.0], [0.0, 0.0, -0.0, 0.0, 11.7, 0.0], [-0.0, -0.0, -0.0, 0.0, 0.0, 11.7]], 'warnings': [], 'nsites': 5}",0.0,83.0,131.0,0.0,0.24,205.84
127,mp-5451,Er(FeGe)2,"{'Er': 1.0, 'Fe': 2.0, 'Ge': 2.0}",0.17038328912943895,8.830491042709065,"{'G_Reuss': 48.0, 'G_VRH': 51.0, 'G_Voigt': 55.0, 'G_Voigt_Reuss_Hill': 51.0, 'K_Reuss': 126.0, 'K_VRH': 126.0, 'K_Voigt': 126.0, 'K_Voigt_Reuss_Hill': 126.0, 'elastic_anisotropy': 0.76, 'elastic_tensor': [[193.0, 72.0, 110.0, 0.0, 0.0, 0.0], [72.0, 193.0, 110.0, 0.0, 0.0, 0.0], [110.0, 110.0, 162.0, 0.0, 0.0, 0.0], [0.0, 0.0, 0.0, 69.0, 0.0, 0.0], [0.0, 0.0, 0.0, 0.0, 69.0, 0.0], [0.0, 0.0, 0.0, 0.0, 0.0, 52.0]], 'homogeneous_poisson': 0.32, 'poisson_ratio': 0.32, 'universal_anisotropy': 0.76, 'elastic_tensor_original': [[193.37613479996645, 72.1758392781545, 117.76691566186882, 0.0, 0.0, 0.0], [72.1758392781545, 193.37613479996642, 117.76691566186885, 0.0, 0.0, 0.0], [101.96319603007201, 101.96319603007201, 162.32445420506858, 0.0, 0.0, 0.0], [0.0, 0.0, 0.0, 68.84297912296897, 0.0, 0.0], [0.0, 0.0, 0.0, 0.0, 68.84297912296896, 0.0], [0.5185809644715721, -0.5185809644715741, 0.0, 0.0, 0.0, 51.85609452586936]], 'compliance_tensor': [[8.4, 0.2, -5.8, -0.0, -0.0, -0.0], [0.2, 8.4, -5.8, -0.0, -0.0, -0.0], [-5.8, -5.8, 14.0, -0.0, -0.0, 0.0], [-0.0, -0.0, -0.0, 14.5, 0.0, -0.0], [-0.0, -0.0, -0.0, 0.0, 14.5, -0.0], [-0.0, -0.0, 0.0, -0.0, -0.0, 19.3]], 'warnings': ['Contains a rare earth element'], 'nsites': 5}",0.0,51.0,126.0,0.76,0.32,134.64000000000001
128,mp-5529,MnFe2Si,"{'Mn': 1.0, 'Fe': 2.0, 'Si': 1.0}",0.15988294526845548,7.393942769723792,"{'G_Reuss': 77.0, 'G_VRH': 97.0, 'G_Voigt': 117.0, 'G_Voigt_Reuss_Hill': 97.0, 'K_Reuss': 233.0, 'K_VRH': 233.0, 'K_Voigt': 233.0, 'K_Voigt_Reuss_Hill': 233.0, 'elastic_anisotropy': 2.61, 'elastic_tensor': [[290.0, 204.0, 204.0, 0.0, 0.0, 0.0], [204.0, 290.0, 204.0, 0.0, 0.0, 0.0], [204.0, 204.0, 290.0, 0.0, 0.0, 0.0], [0.0, 0.0, 0.0, 167.0, 0.0, 0.0], [0.0, 0.0, 0.0, 0.0, 167.0, 0.0], [0.0, 0.0, 0.0, 0.0, 0.0, 167.0]], 'homogeneous_poisson': 0.32, 'poisson_ratio': 0.32, 'universal_anisotropy': 2.61, 'elastic_tensor_original': [[289.77281097492124, 204.56549634270746, 204.56840515492485, 0.002958759172156841, 0.0035456481770754313, 0.003916760519584426], [204.3651262020633, 289.58456121627796, 204.36543458977218, -0.00017506979396356002, -0.0006389950827984257, 0.0011637346999072984], [204.43510098671467, 204.44914223591303, 289.64704682096243, -0.0011561956862037738, 0.0013491756936741947, 0.0023664663556184824], [-0.0940190378510379, -0.09233947084848042, -0.09343060222185878, 166.84166338236238, 9.136681060549154e-05, -0.00039364354880947383], [-0.06543434941937397, -0.07314690481271362, -0.06985643054793565, -0.0005482402350550688, 166.8632151005082, -0.001259613161230483], [-0.327311981308209, -0.33090828502799446, -0.33252361837349403, 0.00019694672245167152, 0.00010769338780059409, 166.8629512199216]], 'compliance_tensor': [[8.3, -3.4, -3.4, 0.0, 0.0, -0.0], [-3.4, 8.3, -3.4, -0.0, -0.0, 0.0], [-3.4, -3.4, 8.3, 0.0, -0.0, 0.0], [0.0, -0.0, 0.0, 6.0, -0.0, 0.0], [0.0, -0.0, -0.0, -0.0, 6.0, -0.0], [-0.0, 0.0, 0.0, 0.0, -0.0, 6.0]], 'warnings': [], 'nsites': 4}",0.0,97.0,233.0,2.61,0.32,256.08
129,mp-568961,Ba(FeAs)2,"{'Ba': 1.0, 'Fe': 2.0, 'As': 2.0}",0.20882032009483698,6.446281180426621,"{'G_Reuss': 40.0, 'G_VRH': 42.0, 'G_Voigt': 44.0, 'G_Voigt_Reuss_Hill': 42.0, 'K_Reuss': 75.0, 'K_VRH': 77.0, 'K_Voigt': 79.0, 'K_Voigt_Reuss_Hill': 77.0, 'elastic_anisotropy': 0.59, 'elastic_tensor': [[150.0, 49.0, 57.0, 0.0, 0.0, 0.0], [49.0, 150.0, 57.0, 0.0, 0.0, 0.0], [57.0, 57.0, 89.0, 0.0, 0.0, 0.0], [0.0, 0.0, 0.0, 43.0, 0.0, 0.0], [0.0, 0.0, 0.0, 0.0, 43.0, 0.0], [0.0, 0.0, 0.0, 0.0, 0.0, 58.0]], 'homogeneous_poisson': 0.27, 'poisson_ratio': 0.27, 'universal_anisotropy': 0.59, 'elastic_tensor_original': [[149.72339487581422, 49.025295865002796, 57.12959119945221, 0.0, 0.0, 0.0], [49.03652603986386, 149.73904123449185, 57.140621907891536, 0.0, 0.0, 0.0], [56.560126587200706, 56.560126587200706, 88.71357629942406, 0.0, 0.0, 0.0], [0.22887991298930058, 0.1682951542564509, 0.2112727925032849, 42.87906973810043, 0.0, 0.0], [0.01190652915376844, 0.01138159600470287, 0.012310165678746387, 0.0, 42.89085750396257, 0.0], [0.0001419199421423624, 9.928995952131617e-05, 0.0001274366147142188, 0.0, 0.0, 58.23379525920798]], 'compliance_tensor': [[8.9, -1.0, -5.1, 0.0, -0.0, -0.0], [-1.0, 8.9, -5.1, 0.0, -0.0, 0.0], [-5.1, -5.1, 17.8, -0.0, 0.0, -0.0], [0.0, 0.0, -0.0, 23.3, -0.0, 0.0], [-0.0, -0.0, 0.0, -0.0, 23.3, -0.0], [-0.0, 0.0, -0.0, 0.0, -0.0, 17.2]], 'warnings': [], 'nsites': 10}",0.0,42.0,77.0,0.59,0.27,106.68