,mp_id,Formula,Composition,IPF,Density,Elastic_Tensor,E_above_Hull,G_VRH,K_VRH,Elastic_Anisotropy,poisson_ratio,Y_Modulus
193,mp-558674,K2NaFeF6,"{'K': 2.0, 'Na': 1.0, 'Fe': 1.0, 'F': 6.0}",0.3131620163600146,2.9758159256131105,"{'G_Reuss': 30.0, 'G_VRH': 30.0, 'G_Voigt': 30.0, 'G_Voigt_Reuss_Hill': 30.0, 'K_Reuss': 99.0, 'K_VRH': 99.0, 'K_Voigt': 99.0, 'K_Voigt_Reuss_Hill': 99.0, 'elastic_anisotropy': 0.0, 'elastic_tensor': [[138.0, 80.0, 80.0, 0.0, 0.0, 0.0], [80.0, 138.0, 80.0, 0.0, 0.0, 0.0], [80.0, 80.0, 138.0, 0.0, 0.0, 0.0], [0.0, 0.0, 0.0, 31.0, 0.0, 0.0], [0.0, 0.0, 0.0, 0.0, 31.0, 0.0], [0.0, 0.0, 0.0, 0.0, 0.0, 31.0]], 'homogeneous_poisson': 0.36, 'poisson_ratio': 0.36, 'universal_anisotropy': 0.0, 'elastic_tensor_original': [[137.9687092595266, 80.01649568478142, 80.01649568478142, 0.0, 0.0, 0.0], [80.01649568478142, 137.9687092595266, 80.01649568478142, 0.0, 0.0, 0.0], [80.01649568478142, 80.01649568478142, 137.9687092595266, 0.0, 0.0, 0.0], [0.0, 0.0, 0.0, 30.585555516999204, 0.0, 0.0], [0.0, 0.0, 0.0, 0.0, 30.585555516999204, 0.0], [0.0, 0.0, 0.0, 0.0, 0.0, 30.585555516999204]], 'compliance_tensor': [[12.622292691324414, -4.633303571797204, -4.633303571797206, -2.136447995112179e-16, 5.610880700364459e-16, 2.093448678986829e-17], [-4.633303571797205, 12.622292691324416, -4.633303571797207, 5.610880700364459e-16, -2.136447995112179e-16, -2.0934486789868265e-17], [-4.633303571797205, -4.633303571797207, 12.622292691324418, 5.610880700364458e-16, 5.610880700364458e-16, 1.9589712665705298e-32], [-2.136447995112179e-16, 5.610880700364458e-16, 5.610880700364459e-16, 32.695172054148514, 1.6375817351841238e-32, 7.537983827577937e-16], [5.610880700364458e-16, -2.1364479951121797e-16, 5.610880700364459e-16, 1.6375817351841213e-32, 32.695172054148514, 7.537983827577937e-16], [2.0934486789868296e-17, -2.0934486789868283e-17, 2.2944394981932507e-32, 7.537983827577937e-16, 7.537983827577943e-16, 32.695172054148514]], 'warnings': [], 'nsites': 10}",0.0,30.0,99.0,0.0,0.36,81.6
194,mp-643264,BaMg2FeH8,"{'Ba': 1.0, 'Mg': 2.0, 'Fe': 1.0, 'H': 8.0}",0.17379314326416934,3.310495649052089,"{'G_Reuss': 39.0, 'G_VRH': 39.0, 'G_Voigt': 40.0, 'G_Voigt_Reuss_Hill': 39.0, 'K_Reuss': 53.0, 'K_VRH': 54.0, 'K_Voigt': 54.0, 'K_Voigt_Reuss_Hill': 54.0, 'elastic_anisotropy': 0.18, 'elastic_tensor': [[120.0, 29.0, 24.0, 5.0, 0.0, 0.0], [29.0, 120.0, 24.0, -5.0, 0.0, 0.0], [24.0, 24.0, 93.0, 0.0, 0.0, 0.0], [5.0, -5.0, 0.0, 34.0, 0.0, 0.0], [0.0, 0.0, 0.0, 0.0, 34.0, 5.0], [0.0, 0.0, 0.0, 0.0, 5.0, 46.0]], 'homogeneous_poisson': 0.21, 'poisson_ratio': 0.21, 'universal_anisotropy': 0.18, 'elastic_tensor_original': [[114.9776018803084, 24.15364315332212, 21.67917715020663, -4.565302395529653, 0.0, 0.0], [33.3118793368034, 127.28798191408326, 27.90973779559175, 4.950211870843657, 0.0, 0.0], [23.55171885981349, 23.551717167687002, 92.79538774706656, 0.0, 0.0, 0.0], [-6.394731603451596, 2.571230663170347, -0.4560399621236597, 33.72254798777173, 0.0, 0.0], [0.0, 0.0, 0.0, 0.0, 34.664565061692294, -4.620717721694483], [0.0, 0.0, 0.0, 0.0, -4.802933906792907, 44.88225308242566]], 'compliance_tensor': [[9.2, -1.9, -1.9, -1.5, -0.0, -0.0], [-1.9, 9.2, -1.9, 1.5, 0.0, -0.0], [-1.9, -1.9, 11.8, 0.0, -0.0, 0.0], [-1.5, 1.5, 0.0, 29.7, -0.0, 0.0], [-0.0, 0.0, -0.0, -0.0, 29.7, -3.0], [-0.0, -0.0, 0.0, 0.0, -3.0, 22.3]], 'warnings': [], 'nsites': 12}",0.0,39.0,54.0,0.18,0.21,94.38
195,mp-18968,Li2FeSiO4,"{'Li': 2.0, 'Fe': 1.0, 'Si': 1.0, 'O': 4.0}",0.49937863556590956,3.129272616958105,"{'G_Reuss': 44.0, 'G_VRH': 44.0, 'G_Voigt': 45.0, 'G_Voigt_Reuss_Hill': 44.0, 'K_Reuss': 85.0, 'K_VRH': 88.0, 'K_Voigt': 92.0, 'K_Voigt_Reuss_Hill': 88.0, 'elastic_anisotropy': 0.28, 'elastic_tensor': [[130.0, 66.0, 42.0, 0.0, 0.0, 0.0], [66.0, 214.0, 64.0, 0.0, 0.0, 0.0], [42.0, 64.0, 138.0, 0.0, 0.0, 0.0], [0.0, 0.0, 0.0, 45.0, 0.0, 0.0], [0.0, 0.0, 0.0, 0.0, 35.0, 0.0], [0.0, 0.0, 0.0, 0.0, 0.0, 43.0]], 'homogeneous_poisson': 0.28, 'poisson_ratio': 0.28, 'universal_anisotropy': 0.28, 'elastic_tensor_original': [[137.9673678750009, 42.376009099518214, 64.49247724192918, 0.0, 0.0, 0.0], [40.96930173597581, 129.76860687328193, 66.03138005098234, 0.0, 0.0, 0.0], [63.59220199030403, 66.15739396451957, 214.2376931274834, 0.0, 0.0, 0.0], [0.6240756443152237, 0.32740390715597056, 0.16121450082773256, 43.42266025483225, 0.0, 0.0], [-0.00046678102547911425, 0.0008288518829335144, -0.0002291370494051478, 0.0, 44.80800204613484, 0.0], [-0.017577507708484912, -0.007301353823146482, 0.009817572971716986, 0.0, 0.0, 34.97952574443342]], 'compliance_tensor': [[9.5, -2.4, -1.8, 0.0, 0.0, 0.0], [-2.4, 6.0, -2.1, 0.0, 0.0, 0.0], [-1.8, -2.1, 8.7, 0.0, 0.0, 0.0], [0.0, 0.0, 0.0, 22.3, 0.0, 0.0], [0.0, 0.0, 0.0, 0.0, 28.6, 0.0], [0.0, 0.0, 0.0, 0.0, 0.0, 23.0]], 'warnings': [], 'nsites': 32}",0.0,44.0,88.0,0.28,0.28,112.64
196,mp-561067,KRb2FeF6,"{'K': 1.0, 'Rb': 2.0, 'Fe': 1.0, 'F': 6.0}",0.3500421155008848,3.4268223606196653,"{'G_Reuss': 22.0, 'G_VRH': 23.0, 'G_Voigt': 23.0, 'G_Voigt_Reuss_Hill': 23.0, 'K_Reuss': 49.0, 'K_VRH': 49.0, 'K_Voigt': 49.0, 'K_Voigt_Reuss_Hill': 49.0, 'elastic_anisotropy': 0.34, 'elastic_tensor': [[91.0, 29.0, 29.0, 0.0, 0.0, 0.0], [29.0, 91.0, 29.0, 0.0, 0.0, 0.0], [29.0, 29.0, 91.0, 0.0, 0.0, 0.0], [0.0, 0.0, 0.0, 18.0, 0.0, 0.0], [0.0, 0.0, 0.0, 0.0, 18.0, 0.0], [0.0, 0.0, 0.0, 0.0, 0.0, 18.0]], 'homogeneous_poisson': 0.3, 'poisson_ratio': 0.3, 'universal_anisotropy': 0.34, 'elastic_tensor_original': [[91.07195047728564, 28.693471558993686, 28.693471558993686, 0.0, 0.0, 0.0], [28.693471558993686, 91.07195047728564, 28.693471558993686, 0.0, 0.0, 0.0], [28.693471558993686, 28.693471558993686, 91.07195047728564, 0.0, 0.0, 0.0], [0.0, 0.0, 0.0, 18.371032128159086, 0.0, 0.0], [0.0, 0.0, 0.0, 0.0, 18.371032128159086, 0.0], [0.0, 0.0, 0.0, 0.0, 0.0, 18.371032128159086]], 'compliance_tensor': [[12.932737099933544, -3.0984329019813135, -3.098432901981314, 3.690898224965003e-17, -2.206788350040622e-16, 6.662219438563786e-17], [-3.0984329019813144, 12.932737099933544, -3.0984329019813135, -2.2067883500406225e-16, 3.6908982249650015e-17, -6.662219438563786e-17], [-3.098432901981314, -3.0984329019813135, 12.932737099933545, -2.206788350040622e-16, -2.206788350040622e-16, 4.2644263408156346e-33], [3.690898224965002e-17, -2.206788350040622e-16, -2.206788350040622e-16, 54.43352300642936, 6.199542437120349e-33, -3.2421001163935e-16], [-2.206788350040622e-16, 3.690898224965002e-17, -2.2067883500406225e-16, 6.199542437120349e-33, 54.43352300642936, -3.2421001163935e-16], [6.66221943856379e-17, -6.662219438563789e-17, -2.0140467298536372e-33, -3.2421001163935e-16, -3.2421001163935e-16, 54.43352300642936]], 'warnings': [], 'nsites': 10}",0.0,23.0,49.0,0.34,0.3,59.800000000000004
197,mp-19127,Sr2FeMoO6,"{'Sr': 2.0, 'Fe': 1.0, 'Mo': 1.0, 'O': 6.0}",0.5764546180915937,5.465475723894392,"{'G_Reuss': -14.0, 'G_VRH': -15.0, 'G_Voigt': -16.0, 'G_Voigt_Reuss_Hill': -15.0, 'K_Reuss': 161.0, 'K_VRH': 161.0, 'K_Voigt': 161.0, 'K_Voigt_Reuss_Hill': 161.0, 'elastic_anisotropy': 0.43, 'elastic_tensor': [[137.0, 174.0, 169.0, 0.0, 0.0, 0.0], [174.0, 137.0, 169.0, 0.0, 0.0, 0.0], [169.0, 169.0, 151.0, 0.0, 0.0, 0.0], [0.0, 0.0, 0.0, -19.0, 0.0, 0.0], [0.0, 0.0, 0.0, 0.0, -19.0, 0.0], [0.0, 0.0, 0.0, 0.0, 0.0, -10.0]], 'homogeneous_poisson': 0.55, 'poisson_ratio': 0.55, 'universal_anisotropy': 0.43, 'elastic_tensor_original': [[65.9048057717809, 332.173239567574, 30.895176110148498, 0.0, 0.0, 0.0], [332.173239567574, 65.9048057717809, 30.895176110148498, 0.0, 0.0, 0.0], [154.35180612859256, 154.35180612859256, 282.9702868655943, 0.0, 0.0, 0.0], [0.0, 0.0, 0.0, 39.10663886310735, 0.0, 0.0], [0.0, 0.0, 0.0, 0.0, 39.10663886310735, 0.0], [0.0, 0.0, 0.0, 0.0, 0.0, -117.42088757718274]], 'compliance_tensor': [[-20.614659650440466, 5.996497170791221, 16.403485264234543, -2.908043369317e-15, -1.296891929175966e-15, 5.174229520453354e-16], [5.996497170791223, -20.614659650440476, 16.403485264234554, -1.296891929175966e-15, -2.9080433693170015e-15, 5.174229520453356e-16], [16.40348526423454, 16.403485264234554, -30.182631161025324, 3.265984619772503e-15, 3.2659846197725038e-15, -7.839597105477675e-16], [-2.9080433693170003e-15, -1.296891929175966e-15, 3.2659846197725034e-15, -52.23807474973207, -1.6157839235822492e-15, 2.9087413275475452e-15], [-1.2968919291759653e-15, -2.9080433693170023e-15, 3.2659846197725046e-15, -1.6157839235822492e-15, -52.23807474973207, 2.908741327547545e-15], [-3.1427231499985584e-16, -3.1427231499985633e-16, 1.0825814605880949e-15, 2.9087413275475444e-15, 2.9087413275475444e-15, -96.08652506680515]], 'warnings': ['Elastic tensor has a negative eigenvalue', 'c11 and c12 are within 5% or c12 is greater than c11', 'c11 and c13 are within 5% or c13 is greater than c11', 'c11 and c23 are within 5% or c23 is greater than c11', 'One or more K, G below 2 GPa'], 'nsites': 20}",0.7381334166671749,-15.0,161.0,0.43,0.55,-46.5
198,mp-1025354,Er2Fe2Si2C,"{'Er': 2.0, 'Fe': 2.0, 'Si': 2.0, 'C': 1.0}",0.14906151429182124,8.070122738219048,"{'G_Reuss': 81.0, 'G_VRH': 85.0, 'G_Voigt': 89.0, 'G_Voigt_Reuss_Hill': 85.0, 'K_Reuss': 138.0, 'K_VRH': 139.0, 'K_Voigt': 139.0, 'K_Voigt_Reuss_Hill': 139.0, 'elastic_anisotropy': 0.45, 'elastic_tensor': [[242.0, 94.0, 84.0, 0.0, -41.0, 0.0], [94.0, 260.0, 83.0, 0.0, 13.0, 0.0], [84.0, 83.0, 229.0, 0.0, 14.0, 0.0], [0.0, 0.0, 0.0, 96.0, 0.0, 17.0], [-41.0, 13.0, 14.0, 0.0, 96.0, 0.0], [0.0, 0.0, 0.0, 17.0, 0.0, 94.0]], 'homogeneous_poisson': 0.25, 'poisson_ratio': 0.25, 'universal_anisotropy': 0.45, 'elastic_tensor_original': [[241.84029976271992, 105.59353892241764, 92.8310429072313, 0.0, -37.864879547058315, 0.0], [83.09112222890819, 260.4168723652667, 80.92515591390894, 1.8000005941916505e-06, 13.949175004711432, 1.0200003367086018e-05], [74.82299212431994, 84.92441358735657, 229.0083677963389, 0.0, 14.481920759586755, 0.0], [0.0, 4.294831503559891e-06, 0.0, 95.69069537231584, 0.0, 17.254458145150323], [-44.50379494354118, 12.077836325183053, 12.541936596556432, 0.0, 96.42615648551418, 0.0], [0.0, 2.3348653522133423e-05, 0.0, 17.356055135173197, 0.0, 93.80585316189179]], 'compliance_tensor': [[5.9, -1.8, -1.7, 0.0, 3.0, -0.0], [-1.8, 4.9, -1.0, 0.0, -1.3, -0.0], [-1.7, -1.0, 5.5, 0.0, -1.4, 0.0], [0.0, 0.0, 0.0, 10.8, -0.0, -2.0], [3.0, -1.3, -1.4, -0.0, 12.0, 0.0], [-0.0, -0.0, 0.0, -2.0, 0.0, 11.0]], 'warnings': ['Contains a rare earth element'], 'nsites': 7}",0.0,85.0,139.0,0.45,0.25,212.5
199,mp-19226,NaFePO4,"{'Na': 1.0, 'Fe': 1.0, 'P': 1.0, 'O': 4.0}",0.5374331018738084,3.578322829907119,"{'G_Reuss': 40.0, 'G_VRH': 42.0, 'G_Voigt': 43.0, 'G_Voigt_Reuss_Hill': 42.0, 'K_Reuss': 83.0, 'K_VRH': 84.0, 'K_Voigt': 84.0, 'K_Voigt_Reuss_Hill': 84.0, 'elastic_anisotropy': 0.46, 'elastic_tensor': [[137.0, 49.0, 45.0, 0.0, 0.0, 0.0], [49.0, 157.0, 62.0, 0.0, 0.0, 0.0], [45.0, 62.0, 150.0, 0.0, 0.0, 0.0], [0.0, 0.0, 0.0, 55.0, 0.0, 0.0], [0.0, 0.0, 0.0, 0.0, 24.0, 0.0], [0.0, 0.0, 0.0, 0.0, 0.0, 42.0]], 'homogeneous_poisson': 0.29, 'poisson_ratio': 0.29, 'universal_anisotropy': 0.46, 'elastic_tensor_original': [[149.87849976891204, 44.91827714894609, 62.11874296539232, 0.0, 0.0, 0.0], [44.095237966716574, 137.4276185358249, 49.268790282902664, 0.0, 0.0, 0.0], [62.833990252552155, 48.48989642110561, 157.1662948525178, 0.0, 0.0, 0.0], [-0.04562815332691837, -0.12044429944358584, 0.013720226012002443, 42.154328718072996, 0.0, 0.0], [0.008653923270335475, -0.00845951008818534, 0.007065351172343571, 0.0, 54.97844472971324, 0.0], [0.01096708763965762, -0.01818041503569795, -0.03935208427596366, 0.0, 0.0, 24.098744467655248]], 'compliance_tensor': [[8.5, -2.0, -1.7, 0.0, 0.0, -0.0], [-2.0, 8.1, -2.8, 0.0, 0.0, 0.0], [-1.7, -2.8, 8.3, 0.0, 0.0, -0.0], [0.0, 0.0, 0.0, 18.2, 0.0, 0.0], [0.0, 0.0, 0.0, 0.0, 41.5, 0.0], [-0.0, 0.0, -0.0, 0.0, 0.0, 23.7]], 'warnings': [], 'nsites': 28}",0.0,42.0,84.0,0.46,0.29,108.36
200,mp-998964,TiGaFeCo,"{'Ti': 1.0, 'Ga': 1.0, 'Fe': 1.0, 'Co': 1.0}",0.18156565862394278,7.852732359070375,"{'G_Reuss': 116.0, 'G_VRH': 116.0, 'G_Voigt': 117.0, 'G_Voigt_Reuss_Hill': 116.0, 'K_Reuss': 204.0, 'K_VRH': 204.0, 'K_Voigt': 204.0, 'K_Voigt_Reuss_Hill': 204.0, 'elastic_anisotropy': 0.04, 'elastic_tensor': [[343.0, 134.0, 134.0, 0.0, 0.0, 0.0], [134.0, 343.0, 134.0, 0.0, 0.0, 0.0], [134.0, 134.0, 343.0, 0.0, 0.0, 0.0], [0.0, 0.0, 0.0, 125.0, 0.0, 0.0], [0.0, 0.0, 0.0, 0.0, 125.0, 0.0], [0.0, 0.0, 0.0, 0.0, 0.0, 125.0]], 'homogeneous_poisson': 0.26, 'poisson_ratio': 0.26, 'universal_anisotropy': 0.04, 'elastic_tensor_original': [[343.43702792468986, 134.34051088159129, 134.34051088159129, 0.0, 0.0, 0.0], [134.34051088159129, 343.43702792468986, 134.34051088159129, 0.0, 0.0, 0.0], [134.34051088159129, 134.34051088159129, 343.43702792468986, 0.0, 0.0, 0.0], [0.0, 0.0, 0.0, 124.9148130092973, 0.0, 0.0], [0.0, 0.0, 0.0, 0.0, 124.9148130092973, 0.0], [0.0, 0.0, 0.0, 0.0, 0.0, 124.9148130092973]], 'compliance_tensor': [[3.7, -1.0, -1.0, 0.0, -0.0, 0.0], [-1.0, 3.7, -1.0, -0.0, 0.0, -0.0], [-1.0, -1.0, 3.7, -0.0, -0.0, 0.0], [0.0, -0.0, -0.0, 8.0, -0.0, -0.0], [-0.0, 0.0, -0.0, 0.0, 8.0, -0.0], [0.0, -0.0, 0.0, -0.0, -0.0, 8.0]], 'warnings': [], 'nsites': 4}",0.0,116.0,204.0,0.04,0.26,292.32
201,mp-1025262,Sm2Fe2Si2C,"{'Sm': 2.0, 'Fe': 2.0, 'Si': 2.0, 'C': 1.0}",0.19485406368576574,7.012711217690293,"{'G_Reuss': 66.0, 'G_VRH': 72.0, 'G_Voigt': 78.0, 'G_Voigt_Reuss_Hill': 72.0, 'K_Reuss': 126.0, 'K_VRH': 128.0, 'K_Voigt': 130.0, 'K_Voigt_Reuss_Hill': 128.0, 'elastic_anisotropy': 0.91, 'elastic_tensor': [[194.0, 86.0, 89.0, 0.0, -48.0, 0.0], [86.0, 250.0, 79.0, 0.0, 12.0, 0.0], [89.0, 79.0, 213.0, 0.0, 5.0, 0.0], [0.0, 0.0, 0.0, 85.0, 0.0, 12.0], [-48.0, 12.0, 5.0, 0.0, 82.0, 0.0], [0.0, 0.0, 0.0, 12.0, 0.0, 87.0]], 'homogeneous_poisson': 0.26, 'poisson_ratio': 0.26, 'universal_anisotropy': 0.91, 'elastic_tensor_original': [[194.19185689149754, 99.38740451301021, 95.82963064272221, -6.199990712123348e-06, -52.043602836243906, 2.3199965245364786e-05], [71.75127832340984, 250.22967887118767, 73.54175037298874, -7.999887627096664e-07, 6.623339963200466, -8.599879199128913e-06], [82.72139282124937, 85.09066025007566, 213.20688515852376, 0.0, 0.6323518763299653, 9.999792466850081e-06], [0.0, -2.7707406621637872e-08, 0.0, 84.73138495876711, 0.0, 11.450186540220942], [-43.99649510486573, 17.79853267870371, 9.599726622822033, 9.899925565725203e-06, 82.25231147200131, -5.3999593994864745e-06], [0.0, -2.0991024144934034e-07, 0.0, 11.917609728202544, 0.0, 87.21061577899447]], 'compliance_tensor': [[9.1, -2.4, -3.0, -0.0, 5.8, 0.0], [-2.4, 5.2, -0.9, 0.0, -2.1, 0.0], [-3.0, -0.9, 6.3, 0.0, -2.0, -0.0], [-0.0, 0.0, 0.0, 12.0, 0.0, -1.6], [5.8, -2.1, -2.0, 0.0, 16.0, -0.0], [0.0, 0.0, -0.0, -1.6, -0.0, 11.7]], 'warnings': ['Contains a rare earth element'], 'nsites': 7}",0.0,72.0,128.0,0.91,0.26,181.44
202,mp-644264,Ca4Mg4Fe3H22,"{'Ca': 4.0, 'Mg': 4.0, 'Fe': 3.0, 'H': 22.0}",0.14480703268438752,2.4855974917700445,"{'G_Reuss': 44.0, 'G_VRH': 44.0, 'G_Voigt': 44.0, 'G_Voigt_Reuss_Hill': 44.0, 'K_Reuss': 61.0, 'K_VRH': 61.0, 'K_Voigt': 61.0, 'K_Voigt_Reuss_Hill': 61.0, 'elastic_anisotropy': 0.01, 'elastic_tensor': [[117.0, 33.0, 33.0, 0.0, 0.0, 0.0], [33.0, 117.0, 33.0, 0.0, 0.0, 0.0], [33.0, 33.0, 117.0, 0.0, 0.0, 0.0], [0.0, 0.0, 0.0, 45.0, 0.0, 0.0], [0.0, 0.0, 0.0, 0.0, 45.0, 0.0], [0.0, 0.0, 0.0, 0.0, 0.0, 45.0]], 'homogeneous_poisson': 0.21, 'poisson_ratio': 0.21, 'universal_anisotropy': 0.01, 'elastic_tensor_original': [[117.43475784609147, 33.25295797810952, 33.25295797810952, 0.0, 0.0, 0.0], [33.24906816066233, 117.43074150400042, 33.24906816066233, 0.0, 0.0, 0.0], [33.24695962163207, 33.24695962163207, 117.43119198894253, 0.0, 0.0, 0.0], [-0.006824331043053791, 0.02227503062681419, -0.03422818363821049, 45.04677936691698, 0.0, 0.0], [0.006843150614352395, 0.006021523943930907, 0.0068843579425854565, 0.0, 45.04609484192691, 0.0], [-0.05282940759515628, -0.052722826517119764, -0.054659133505997264, 0.0, 0.0, 45.044042140685875]], 'compliance_tensor': [[9.7, -2.1, -2.1, -0.0, 0.0, -0.0], [-2.1, 9.7, -2.1, 0.0, 0.0, 0.0], [-2.1, -2.1, 9.7, 0.0, 0.0, -0.0], [-0.0, 0.0, 0.0, 22.2, 0.0, 0.0], [0.0, 0.0, 0.0, 0.0, 22.2, 0.0], [-0.0, 0.0, -0.0, 0.0, 0.0, 22.2]], 'warnings': [], 'nsites': 33}",0.0,44.0,61.0,0.01,0.21,106.47999999999999
203,mp-9211,Tm2Fe2Si2C,"{'Tm': 2.0, 'Fe': 2.0, 'Si': 2.0, 'C': 1.0}",0.1685114178255008,8.221256348591078,"{'G_Reuss': 82.0, 'G_VRH': 86.0, 'G_Voigt': 89.0, 'G_Voigt_Reuss_Hill': 86.0, 'K_Reuss': 134.0, 'K_VRH': 136.0, 'K_Voigt': 137.0, 'K_Voigt_Reuss_Hill': 136.0, 'elastic_anisotropy': 0.46, 'elastic_tensor': [[239.0, 95.0, 71.0, 0.0, -43.0, 0.0], [95.0, 270.0, 85.0, 0.0, 12.0, 0.0], [71.0, 85.0, 221.0, 0.0, 12.0, 0.0], [0.0, 0.0, 0.0, 97.0, 0.0, 19.0], [-43.0, 12.0, 12.0, 0.0, 96.0, 0.0], [0.0, 0.0, 0.0, 19.0, 0.0, 93.0]], 'homogeneous_poisson': 0.24, 'poisson_ratio': 0.24, 'universal_anisotropy': 0.46, 'elastic_tensor_original': [[239.18399464107083, 101.21457676440832, 72.50745218327225, 0.0, -40.93235568413532, 0.0], [87.86784466598576, 269.95465453986236, 82.60150353251996, -1.599960484649619e-06, 12.88465037871945, -1.0799733271384928e-05], [69.47278892153503, 86.68905516673394, 221.21133742851376, 0.0, 10.887225950823222, 0.0], [0.0, 4.6190652364242956e-08, 0.0, 96.89398469054473, 0.0, 18.701613974212293], [-44.414616573367745, 10.350091727182654, 13.122992948684601, 0.0, 96.39777833684118, 0.0], [0.0, 2.290357703376881e-07, 0.0, 18.36632482828161, 0.0, 92.70985965955025]], 'compliance_tensor': [[5.8, -1.7, -1.4, 0.0, 2.9, -0.0], [-1.7, 4.7, -1.2, 0.0, -1.2, -0.0], [-1.4, -1.2, 5.5, 0.0, -1.1, 0.0], [0.0, 0.0, 0.0, 10.7, -0.0, -2.1], [2.9, -1.2, -1.1, -0.0, 12.0, 0.0], [-0.0, -0.0, 0.0, -2.1, 0.0, 11.2]], 'warnings': ['Contains a rare earth element'], 'nsites': 7}",0.0,86.0,136.0,0.46,0.24,213.28
204,mp-1025339,Y2Fe2Si2C,"{'Y': 2.0, 'Fe': 2.0, 'Si': 2.0, 'C': 1.0}",0.14909469323306018,5.518674272107517,"{'G_Reuss': 79.0, 'G_VRH': 83.0, 'G_Voigt': 87.0, 'G_Voigt_Reuss_Hill': 83.0, 'K_Reuss': 124.0, 'K_VRH': 126.0, 'K_Voigt': 127.0, 'K_Voigt_Reuss_Hill': 126.0, 'elastic_anisotropy': 0.5, 'elastic_tensor': [[216.0, 89.0, 62.0, 0.0, -41.0, 0.0], [89.0, 267.0, 74.0, 0.0, 15.0, 0.0], [62.0, 74.0, 212.0, 0.0, 12.0, 0.0], [0.0, 0.0, 0.0, 93.0, 0.0, 13.0], [-41.0, 15.0, 12.0, 0.0, 91.0, 0.0], [0.0, 0.0, 0.0, 13.0, 0.0, 93.0]], 'homogeneous_poisson': 0.23, 'poisson_ratio': 0.23, 'universal_anisotropy': 0.5, 'elastic_tensor_original': [[215.99957452963147, 95.58630791431418, 53.88060257190623, 0.0, -43.093477321132006, 0.0], [82.61001956270358, 266.80399664374016, 63.396384008965185, -1.1999969867561832e-06, 10.109894013623235, -1.0199974387427557e-05], [69.85869301550646, 84.55672392004476, 211.54441243081567, 0.0, 11.341595035145872, 0.0], [0.0, 0.0, 0.0, 93.03870195264935, 0.0, 12.796124982106418], [-39.27982162899798, 19.08170695423718, 12.241812147468798, 0.0, 91.53505248139525, 0.0], [0.0, 0.0, 0.0, 13.741067362006689, 0.0, 92.96382119623279]], 'compliance_tensor': [[6.5, -2.0, -1.4, -0.0, 3.4, 0.0], [-2.0, 4.8, -1.0, 0.0, -1.5, 0.0], [-1.4, -1.0, 5.6, 0.0, -1.2, -0.0], [-0.0, 0.0, 0.0, 11.0, 0.0, -1.6], [3.4, -1.5, -1.2, 0.0, 12.9, 0.0], [0.0, 0.0, -0.0, -1.6, 0.0, 11.0]], 'warnings': [], 'nsites': 7}",0.0,83.0,126.0,0.5,0.23,204.18