,mp_id,Formula,Composition,IPF,Density,Elastic_Tensor,E_above_Hull,G_VRH,K_VRH,Elastic_Anisotropy,poisson_ratio,Y_Modulus
78,mp-505332,LaFeSi,"{'La': 1.0, 'Fe': 1.0, 'Si': 1.0}",0.16556574698085802,6.127574045141812,"{'G_Reuss': 8.0, 'G_VRH': 24.0, 'G_Voigt': 39.0, 'G_Voigt_Reuss_Hill': 24.0, 'K_Reuss': 6.0, 'K_VRH': 38.0, 'K_Voigt': 71.0, 'K_Voigt_Reuss_Hill': 38.0, 'elastic_anisotropy': 30.77, 'elastic_tensor': [[176.0, 77.0, 30.0, 0.0, 0.0, 0.0], [77.0, 176.0, 30.0, 0.0, 0.0, 0.0], [30.0, 30.0, 11.0, 0.0, 0.0, 0.0], [0.0, 0.0, 0.0, 18.0, 0.0, 0.0], [0.0, 0.0, 0.0, 0.0, 18.0, 0.0], [0.0, 0.0, 0.0, 0.0, 0.0, 84.0]], 'homogeneous_poisson': 0.25, 'poisson_ratio': 0.25, 'universal_anisotropy': 30.77, 'elastic_tensor_original': [[175.90972686057066, 76.68797122921441, 30.55154888331468, 0.0, 0.0, 0.0], [76.68797122921441, 175.90972686057066, 30.55154888331468, 0.0, 0.0, 0.0], [30.233312853813125, 30.233312853813125, 10.790863118492894, 0.0, 0.0, 0.0], [0.0, 0.0, 0.0, 18.03507757457121, 0.0, 0.0], [0.0, 0.0, 0.0, 0.0, 18.03507757457121, 0.0], [0.8401653865169343, -0.8401653865169343, 0.0, 0.0, 0.0, 84.01262813616376]], 'compliance_tensor': [[11.2, 1.1, -34.6, 0.0, 0.0, 0.0], [1.1, 11.2, -34.6, 0.0, 0.0, 0.0], [-34.6, -34.6, 287.6, 0.0, 0.0, 0.0], [0.0, 0.0, 0.0, 55.4, 0.0, 0.0], [0.0, 0.0, 0.0, 0.0, 55.4, 0.0], [0.0, 0.0, 0.0, 0.0, 0.0, 11.9]], 'warnings': ['Contains a rare earth element'], 'nsites': 6}",0.0,24.0,38.0,30.77,0.25,60.0
79,mp-624492,Li(Fe3Ge2)2,"{'Li': 1.0, 'Fe': 6.0, 'Ge': 4.0}",0.18318550584879445,7.323536906496802,"{'G_Reuss': 63.0, 'G_VRH': 65.0, 'G_Voigt': 67.0, 'G_Voigt_Reuss_Hill': 65.0, 'K_Reuss': 135.0, 'K_VRH': 135.0, 'K_Voigt': 135.0, 'K_Voigt_Reuss_Hill': 135.0, 'elastic_anisotropy': 0.34, 'elastic_tensor': [[243.0, 96.0, 74.0, -8.0, 0.0, -1.0], [96.0, 243.0, 74.0, 8.0, -0.0, 0.0], [74.0, 74.0, 243.0, 0.0, -0.0, 0.0], [-8.0, 8.0, 0.0, 50.0, 0.0, 0.0], [0.0, -0.0, -0.0, 0.0, 50.0, -8.0], [-1.0, 0.0, 0.0, 0.0, -8.0, 74.0]], 'homogeneous_poisson': 0.29, 'poisson_ratio': 0.29, 'universal_anisotropy': 0.34, 'elastic_tensor_original': [[243.89362524863475, 94.93613635822318, 73.96848059246261, 8.314859956180664, 0.0, 0.0], [94.12577683199618, 244.96989235748447, 73.54483457870404, -7.943707182316368, 0.0, 0.0], [73.9783372350892, 73.97832667499934, 243.45047837825393, 0.0, 0.0, 0.0], [7.367334063870117, -7.911734432076278, 0.4981508166474049, 50.133522250015616, 0.0, 0.0], [0.0067005798563238355, 0.025103417020815408, -0.018813926133156873, -0.004552721911514133, 50.28977597688053, 7.5712609319681095], [0.05521135166785125, 0.06717444923218509, 0.07380393638831592, -0.015128518852541174, 7.547847459221898, 72.88341431827527]], 'compliance_tensor': [[5.1, -1.7, -1.0, 1.1, -0.0, 0.1], [-1.7, 5.1, -1.0, -1.1, 0.0, -0.0], [-1.0, -1.0, 4.7, -0.0, 0.0, -0.0], [1.1, -1.1, -0.0, 20.2, -0.0, -0.0], [-0.0, 0.0, 0.0, -0.0, 20.2, 2.1], [0.1, -0.0, -0.0, -0.0, 2.1, 13.8]], 'warnings': [], 'nsites': 11}",0.0,65.0,135.0,0.34,0.29,167.70000000000002
80,mp-8306,Ba3FeN3,"{'Ba': 3.0, 'Fe': 1.0, 'N': 3.0}",0.2903487904128355,5.196240137983644,"{'G_Reuss': 19.0, 'G_VRH': 19.0, 'G_Voigt': 20.0, 'G_Voigt_Reuss_Hill': 19.0, 'K_Reuss': 29.0, 'K_VRH': 33.0, 'K_Voigt': 37.0, 'K_Voigt_Reuss_Hill': 33.0, 'elastic_anisotropy': 0.6, 'elastic_tensor': [[49.0, 9.0, 32.0, 0.0, 0.0, 0.0], [9.0, 49.0, 32.0, 0.0, 0.0, 0.0], [32.0, 32.0, 87.0, 0.0, 0.0, 0.0], [0.0, 0.0, 0.0, 20.0, 0.0, 0.0], [0.0, 0.0, 0.0, 0.0, 20.0, 0.0], [0.0, 0.0, 0.0, 0.0, 0.0, 20.0]], 'homogeneous_poisson': 0.26, 'poisson_ratio': 0.26, 'universal_anisotropy': 0.6, 'elastic_tensor_original': [[49.48472870319098, 7.6991970343672484, 31.762572915156735, 0.0, 0.0, -0.026621049470673036], [8.819770949185815, 49.76544380076979, 31.92440695938818, 0.0, 0.0, -0.014564113244279676], [31.687518842547302, 31.68751604305908, 87.32680774978435, 0.0, 0.0, 9.565620995326335e-07], [0.3049576067534603, -0.1666903084682705, 0.011216834899740432, 20.282198943130194, -0.00649696985107522, -0.002989756863620729], [-0.08867390988068202, 0.0066739094078158544, -0.007482271275115586, -0.0016151176574510562, 20.300914071569302, 0.010083802221071], [0.24601241498954465, 0.32351854834164134, -0.04689606831461317, 0.0, 0.0, 19.993475544051808]], 'compliance_tensor': [[26.7, 2.1, -10.5, 0.0, -0.0, -0.0], [2.1, 26.7, -10.5, 0.0, -0.0, -0.0], [-10.5, -10.5, 19.1, -0.0, 0.0, 0.0], [0.0, 0.0, -0.0, 49.3, -0.0, 0.0], [-0.0, -0.0, 0.0, -0.0, 49.3, 0.0], [-0.0, -0.0, 0.0, -0.0, -0.0, 49.2]], 'warnings': [], 'nsites': 14}",0.0,19.0,33.0,0.6,0.26,47.88
81,mp-8648,TiFeSi,"{'Ti': 1.0, 'Fe': 1.0, 'Si': 1.0}",0.1501576695810445,5.624878004168807,"{'G_Reuss': 105.0, 'G_VRH': 109.0, 'G_Voigt': 113.0, 'G_Voigt_Reuss_Hill': 109.0, 'K_Reuss': 183.0, 'K_VRH': 183.0, 'K_Voigt': 183.0, 'K_Voigt_Reuss_Hill': 183.0, 'elastic_anisotropy': 0.4, 'elastic_tensor': [[264.0, 131.0, 144.0, 0.0, 0.0, 0.0], [131.0, 332.0, 99.0, 0.0, 0.0, 0.0], [144.0, 99.0, 306.0, 0.0, 0.0, 0.0], [0.0, 0.0, 0.0, 113.0, 0.0, 0.0], [0.0, 0.0, 0.0, 0.0, 137.0, 0.0], [0.0, 0.0, 0.0, 0.0, 0.0, 139.0]], 'homogeneous_poisson': 0.25, 'poisson_ratio': 0.25, 'universal_anisotropy': 0.4, 'elastic_tensor_original': [[305.81234083506547, 143.77773512943907, 98.37670313364579, 0.0, 0.0, 0.0], [143.92726090936614, 264.4459233969664, 130.72636071245478, 0.0, 0.0, 0.0], [99.63301790722808, 131.8259173578933, 332.031481314014, 0.0, 0.0, 0.0], [-0.18538881422206982, -0.17769181735090175, -0.17454931671739027, 139.08521352064486, 0.0, 0.0], [0.053694189532172996, 0.05358523597756963, 0.05269102597552424, 0.0, 112.8403693021835, 0.0], [-0.00707232919388977, -0.007908212454414441, -0.0075951096525323685, 0.0, 0.0, 136.5810853195908]], 'compliance_tensor': [[5.8, -1.6, -2.2, 0.0, 0.0, 0.0], [-1.6, 3.8, -0.5, 0.0, 0.0, 0.0], [-2.2, -0.5, 4.5, 0.0, 0.0, 0.0], [0.0, 0.0, 0.0, 8.9, 0.0, 0.0], [0.0, 0.0, 0.0, 0.0, 7.3, 0.0], [0.0, 0.0, 0.0, 0.0, 0.0, 7.2]], 'warnings': [], 'nsites': 18}",0.0,109.0,183.0,0.4,0.25,272.5
82,mp-9437,NbFeSb,"{'Nb': 1.0, 'Fe': 1.0, 'Sb': 1.0}",0.13730043256093735,8.448733889055742,"{'G_Reuss': 79.0, 'G_VRH': 81.0, 'G_Voigt': 83.0, 'G_Voigt_Reuss_Hill': 81.0, 'K_Reuss': 166.0, 'K_VRH': 166.0, 'K_Voigt': 166.0, 'K_Voigt_Reuss_Hill': 166.0, 'elastic_anisotropy': 0.26, 'elastic_tensor': [[309.0, 95.0, 95.0, 0.0, 0.0, 0.0], [95.0, 309.0, 95.0, 0.0, 0.0, 0.0], [95.0, 95.0, 309.0, 0.0, 0.0, 0.0], [0.0, 0.0, 0.0, 67.0, 0.0, 0.0], [0.0, 0.0, 0.0, 0.0, 67.0, 0.0], [0.0, 0.0, 0.0, 0.0, 0.0, 67.0]], 'homogeneous_poisson': 0.29, 'poisson_ratio': 0.29, 'universal_anisotropy': 0.26, 'elastic_tensor_original': [[309.1861661936942, 94.52640896856974, 94.52640896856974, 0.0, 0.0, 0.0], [94.53840982652137, 309.1983874008615, 94.53840982652137, 0.0, 0.0, 0.0], [94.54070956205675, 94.54070956205675, 309.2007358752452, 0.0, 0.0, 0.0], [-0.02682873413003047, -0.02601551471211071, -0.025959691418734155, 67.42824493663169, 0.0, 0.0], [-0.0004344463557018346, -0.00044261301652206194, -0.0004350463552720504, 0.0, 67.42740930056316, 0.0], [-0.00030903644546710407, -0.00031010644470065926, -0.00031895643836724866, 0.0, 0.0, 67.42741592722508]], 'compliance_tensor': [[3.8, -0.9, -0.9, 0.0, 0.0, -0.0], [-0.9, 3.8, -0.9, 0.0, -0.0, 0.0], [-0.9, -0.9, 3.8, 0.0, -0.0, -0.0], [0.0, 0.0, 0.0, 14.8, 0.0, 0.0], [0.0, -0.0, -0.0, 0.0, 14.8, 0.0], [-0.0, 0.0, -0.0, 0.0, 0.0, 14.8]], 'warnings': [], 'nsites': 3}",0.0,81.0,166.0,0.26,0.29,208.98000000000002
83,mp-16272,Ce(FeP3)4,"{'Ce': 1.0, 'Fe': 4.0, 'P': 12.0}",0.1017619091914366,5.171877804843587,"{'G_Reuss': 132.0, 'G_VRH': 132.0, 'G_Voigt': 132.0, 'G_Voigt_Reuss_Hill': 132.0, 'K_Reuss': 161.0, 'K_VRH': 161.0, 'K_Voigt': 161.0, 'K_Voigt_Reuss_Hill': 161.0, 'elastic_anisotropy': 0.02, 'elastic_tensor': [[351.0, 66.0, 66.0, 0.0, 0.0, 0.0], [66.0, 351.0, 66.0, 0.0, 0.0, 0.0], [66.0, 66.0, 351.0, 0.0, 0.0, 0.0], [0.0, 0.0, 0.0, 126.0, 0.0, 0.0], [0.0, 0.0, 0.0, 0.0, 126.0, 0.0], [0.0, 0.0, 0.0, 0.0, 0.0, 126.0]], 'homogeneous_poisson': 0.18, 'poisson_ratio': 0.18, 'universal_anisotropy': 0.02, 'elastic_tensor_original': [[350.8523314462295, 66.65600022366704, 65.76287320148838, 0.0, 0.0, 0.0], [65.13631739708494, 349.924949148719, 65.97010329387379, -0.002510557106245793, 0.0001088857687763385, -0.0034673474086483573], [66.91722527406414, 65.99208997853088, 351.08967811823004, -6.79716938763779e-05, -0.00034190981775290683, -0.0005265731001919072], [0.1695396441873047, 0.16888187016523362, 0.16943743741361939, 125.55173489201978, 0.0, 0.0], [0.021425922434538523, 0.02241837347370786, 0.0186845762308099, 0.0, 125.69027331374649, 0.0], [0.000316770331683305, 0.00041321376599855365, 0.0003251436737838951, 0.0, 0.0, 125.5519742422704]], 'compliance_tensor': [[3.0, -0.5, -0.5, -0.0, -0.0, 0.0], [-0.5, 3.0, -0.5, 0.0, -0.0, -0.0], [-0.5, -0.5, 3.0, -0.0, 0.0, -0.0], [-0.0, 0.0, -0.0, 8.0, -0.0, 0.0], [-0.0, -0.0, 0.0, -0.0, 8.0, -0.0], [0.0, -0.0, -0.0, 0.0, -0.0, 8.0]], 'warnings': ['Contains a rare earth element'], 'nsites': 17}",0.0,132.0,161.0,0.02,0.18,311.52
84,mp-21141,Fe2CuGe2,"{'Fe': 2.0, 'Cu': 1.0, 'Ge': 2.0}",0.16984691256283047,7.982389200859105,"{'G_Reuss': 56.0, 'G_VRH': 62.0, 'G_Voigt': 67.0, 'G_Voigt_Reuss_Hill': 62.0, 'K_Reuss': 127.0, 'K_VRH': 129.0, 'K_Voigt': 131.0, 'K_Voigt_Reuss_Hill': 129.0, 'elastic_anisotropy': 0.98, 'elastic_tensor': [[280.0, 82.0, 58.0, 0.0, 0.0, 0.0], [82.0, 260.0, 80.0, 0.0, 0.0, 0.0], [58.0, 80.0, 195.0, 0.0, 0.0, 0.0], [0.0, 0.0, 0.0, 62.0, 0.0, 0.0], [0.0, 0.0, 0.0, 0.0, 72.0, 0.0], [0.0, 0.0, 0.0, 0.0, 0.0, 29.0]], 'homogeneous_poisson': 0.29, 'poisson_ratio': 0.29, 'universal_anisotropy': 0.98, 'elastic_tensor_original': [[195.28317085510955, 57.168113193428056, 80.58256719200253, 0.0, 0.0, 0.0], [59.3736157593541, 279.65400184623894, 82.81590768026692, 0.0, 0.0, 0.0], [79.94274332835285, 81.82227846410736, 260.35851582333044, 0.0, 0.0, 0.0], [-0.0003567272438889521, -0.0003089171665246176, -0.000268903768444342, 28.704122169371352, 0.0, 0.0], [0.0012778022755351385, 0.0027135777536230793, 0.0028094010076307845, 0.0, 62.25211686591544, 0.0], [1.2499991127296262e-06, -2.3333316657826247e-07, 4.506663455165131e-06, 0.0, 0.0, 71.84247656970926]], 'compliance_tensor': [[4.0, -1.0, -0.8, 0.0, 0.0, 0.0], [-1.0, 4.7, -1.6, 0.0, -0.0, 0.0], [-0.8, -1.6, 6.0, 0.0, -0.0, 0.0], [0.0, 0.0, 0.0, 16.1, 0.0, 0.0], [0.0, -0.0, -0.0, 0.0, 13.9, 0.0], [0.0, 0.0, 0.0, 0.0, 0.0, 34.8]], 'warnings': [], 'nsites': 10}",0.7931206666675905,62.0,129.0,0.98,0.29,159.96
85,mp-21471,LiFeAs,"{'Li': 1.0, 'Fe': 1.0, 'As': 1.0}",0.15618313575265286,5.211400407134746,"{'G_Reuss': 39.0, 'G_VRH': 40.0, 'G_Voigt': 42.0, 'G_Voigt_Reuss_Hill': 40.0, 'K_Reuss': 67.0, 'K_VRH': 68.0, 'K_Voigt': 69.0, 'K_Voigt_Reuss_Hill': 68.0, 'elastic_anisotropy': 0.49, 'elastic_tensor': [[151.0, 37.0, 36.0, 0.0, 0.0, 0.0], [37.0, 151.0, 36.0, 0.0, 0.0, 0.0], [36.0, 36.0, 101.0, 0.0, 0.0, 0.0], [0.0, 0.0, 0.0, 29.0, 0.0, 0.0], [0.0, 0.0, 0.0, 0.0, 29.0, 0.0], [0.0, 0.0, 0.0, 0.0, 0.0, 54.0]], 'homogeneous_poisson': 0.25, 'poisson_ratio': 0.25, 'universal_anisotropy': 0.49, 'elastic_tensor_original': [[151.230226727116, 37.10942150685787, 37.28916886411226, 0.0, 0.0, 0.0], [37.11023722927039, 151.23029500902285, 37.29065872111661, 0.0, 0.0, 0.0], [34.24334078869841, 34.24334078869841, 100.81274689573117, 0.0, 0.0, 0.0], [0.00023010293860404183, 0.0003389294185846443, 0.0003951526554697115, 29.27606160181068, 0.0, 0.0], [8.620651878397744e-05, 0.00012039979346060371, -4.27499266651672e-05, 0.0, 29.275990158599896, 0.0], [0.00019870630339834425, 0.00012708643433149112, 0.0001227964421738692, 0.0, 0.0, 53.50425133198378]], 'compliance_tensor': [[7.4, -1.3, -2.2, 0.0, 0.0, 0.0], [-1.3, 7.4, -2.2, 0.0, 0.0, 0.0], [-2.2, -2.2, 11.5, 0.0, 0.0, 0.0], [0.0, 0.0, 0.0, 34.2, 0.0, 0.0], [0.0, 0.0, 0.0, 0.0, 34.2, 0.0], [0.0, 0.0, 0.0, 0.0, 0.0, 18.7]], 'warnings': [], 'nsites': 6}",0.0,40.0,68.0,0.49,0.25,100.0
86,mp-27904,FeSbS,"{'Fe': 1.0, 'Sb': 1.0, 'S': 1.0}",0.15666462674286738,6.9529961174769515,"{'G_Reuss': 94.0, 'G_VRH': 97.0, 'G_Voigt': 100.0, 'G_Voigt_Reuss_Hill': 97.0, 'K_Reuss': 110.0, 'K_VRH': 112.0, 'K_Voigt': 113.0, 'K_Voigt_Reuss_Hill': 112.0, 'elastic_anisotropy': 0.31, 'elastic_tensor': [[239.0, 34.0, 32.0, 0.0, -18.0, 0.0], [34.0, 276.0, 56.0, 0.0, -24.0, 0.0], [32.0, 56.0, 256.0, 0.0, 8.0, 0.0], [0.0, 0.0, 0.0, 108.0, 0.0, -23.0], [-18.0, -24.0, 8.0, 0.0, 81.0, 0.0], [0.0, 0.0, 0.0, -23.0, 0.0, 92.0]], 'homogeneous_poisson': 0.16, 'poisson_ratio': 0.16, 'universal_anisotropy': 0.31, 'elastic_tensor_original': [[238.81220495009157, 33.41799089878654, 34.35914356333895, 0.0, -15.588566667647715, 0.0], [34.417910123670154, 276.49761816426405, 56.484693538162446, 0.0, -24.25802841060023, 0.0], [30.494875150243985, 56.29805075576664, 255.99299507891885, 0.0, 7.688657908059025, 0.0], [0.0, 0.0, 0.0, 108.10272403539398, 0.0, -22.140431564274614], [-20.712235209319523, -23.39689942806539, 8.75993096957436, 0.0, 81.04227799320863, 0.0], [0.0, 0.0, 0.0, -23.098055744765663, 0.0, 92.30772107891019]], 'compliance_tensor': [[4.377084634027803, -0.3535810248142813, -0.5065009995390176, 0.0, 0.9279948551000837, 0.0], [-0.3535810248142814, 3.9357879133801705, -0.8597521118607422, 0.0, 1.1650785446840057, 0.0], [-0.5065009995390175, -0.8597521118607422, 4.185436734975202, 0.0, -0.7912573740907796, 0.0], [0.0, 0.0, 0.0, 9.74985649860111, 0.0, 2.3890667415777127], [0.9279948551000842, 1.1650785446840057, -0.7912573740907798, 0.0, 12.969075013075592, 0.0], [0.0, 0.0, 0.0, 2.3890667415777127, 0.0, 11.419323428736684]], 'warnings': [], 'nsites': 12}",0.0,97.0,112.0,0.31,0.16,225.04
87,mp-28884,Cs(FeAs)2,"{'Cs': 1.0, 'Fe': 2.0, 'As': 2.0}",0.291217460302899,5.880310923396109,"{'G_Reuss': 26.0, 'G_VRH': 26.0, 'G_Voigt': 27.0, 'G_Voigt_Reuss_Hill': 26.0, 'K_Reuss': 44.0, 'K_VRH': 44.0, 'K_Voigt': 44.0, 'K_Voigt_Reuss_Hill': 44.0, 'elastic_anisotropy': 0.18, 'elastic_tensor': [[79.0, 28.0, 29.0, 0.0, 0.0, 0.0], [28.0, 79.0, 29.0, 0.0, 0.0, 0.0], [29.0, 29.0, 64.0, 0.0, 0.0, 0.0], [0.0, 0.0, 0.0, 27.0, 0.0, 0.0], [0.0, 0.0, 0.0, 0.0, 27.0, 0.0], [0.0, 0.0, 0.0, 0.0, 0.0, 34.0]], 'homogeneous_poisson': 0.25, 'poisson_ratio': 0.25, 'universal_anisotropy': 0.18, 'elastic_tensor_original': [[79.30926566812597, 28.345390696074162, 29.990289427734385, 0.0, 0.0, 0.0], [28.34543666485693, 79.30932076468463, 29.990381939171627, 0.0, 0.0, 0.0], [28.452696511658356, 28.452696511658356, 63.641833432852195, 0.0, 0.0, 0.0], [-0.00023141662189644292, -0.00011263338033891697, -0.00020963336164772598, 27.18052549104198, 0.0, 0.0], [-0.00023227673842929014, -0.0003852066396425396, -0.00037746337296725227, 0.0, 27.180547057706775, 0.0], [-0.08838712591813752, -0.09583204251346922, -0.1155494956780711, 0.0, 0.0, 34.358891958797464]], 'compliance_tensor': [[16.0, -3.6, -5.7, -0.0, 0.0, 0.0], [-3.6, 16.0, -5.7, -0.0, 0.0, 0.0], [-5.7, -5.7, 20.9, 0.0, -0.0, -0.0], [-0.0, -0.0, 0.0, 36.8, -0.0, -0.0], [0.0, 0.0, -0.0, -0.0, 36.8, 0.0], [0.0, 0.0, -0.0, -0.0, 0.0, 29.1]], 'warnings': [], 'nsites': 5}",0.0,26.0,44.0,0.18,0.25,65.0
88,mp-31187,TiAlFe2,"{'Ti': 1.0, 'Al': 1.0, 'Fe': 2.0}",0.18302227726688025,6.253070135591179,"{'G_Reuss': 104.0, 'G_VRH': 105.0, 'G_Voigt': 106.0, 'G_Voigt_Reuss_Hill': 105.0, 'K_Reuss': 185.0, 'K_VRH': 185.0, 'K_Voigt': 185.0, 'K_Voigt_Reuss_Hill': 185.0, 'elastic_anisotropy': 0.07, 'elastic_tensor': [[305.0, 124.0, 124.0, 0.0, 0.0, 0.0], [124.0, 305.0, 124.0, 0.0, 0.0, 0.0], [124.0, 124.0, 305.0, 0.0, 0.0, 0.0], [0.0, 0.0, 0.0, 116.0, 0.0, 0.0], [0.0, 0.0, 0.0, 0.0, 116.0, 0.0], [0.0, 0.0, 0.0, 0.0, 0.0, 116.0]], 'homogeneous_poisson': 0.26, 'poisson_ratio': 0.26, 'universal_anisotropy': 0.07, 'elastic_tensor_original': [[305.6764317938382, 124.83535001138166, 124.83947335011408, -0.003148904203678146, -0.0007352890244137145, -0.0029255209287972557], [124.1058814163542, 304.9889775047714, 124.10690516102855, -0.00021329016540111223, -8.170308554329121e-05, 3.578895894350303e-05], [123.85921309827516, 123.86230927429524, 304.7543893814507, 0.00020160111046326216, -0.00035069169797244333, -0.0009441869213262997], [-0.0008067994771897778, -0.0008090469726737943, -0.0002319605611666921, 115.87297124633659, 0.0, 0.0], [-2.7203111733490465e-05, -0.00015760628136877026, -0.00034627555976133657, 0.0, 115.87222252412985, 0.0], [-1.631761214538559e-05, -0.0006324604152548398, -0.00024501077065338127, 0.0, 0.0, 115.87342766784906]], 'compliance_tensor': [[4.3, -1.2, -1.2, 0.0, -0.0, -0.0], [-1.2, 4.3, -1.2, -0.0, -0.0, -0.0], [-1.2, -1.2, 4.3, -0.0, -0.0, -0.0], [0.0, -0.0, -0.0, 8.6, 0.0, 0.0], [-0.0, -0.0, -0.0, 0.0, 8.6, 0.0], [-0.0, -0.0, -0.0, 0.0, 0.0, 8.6]], 'warnings': [], 'nsites': 4}",0.0,105.0,185.0,0.07,0.26,264.6
89,mp-3805,Al(FeB)2,"{'Al': 1.0, 'Fe': 2.0, 'B': 2.0}",0.15354113742872438,5.79199396598175,"{'G_Reuss': 127.0, 'G_VRH': 129.0, 'G_Voigt': 131.0, 'G_Voigt_Reuss_Hill': 129.0, 'K_Reuss': 199.0, 'K_VRH': 203.0, 'K_Voigt': 206.0, 'K_Voigt_Reuss_Hill': 203.0, 'elastic_anisotropy': 0.2, 'elastic_tensor': [[424.0, 149.0, 113.0, 0.0, 0.0, 0.0], [149.0, 370.0, 126.0, 0.0, 0.0, 0.0], [113.0, 126.0, 287.0, 0.0, 0.0, 0.0], [0.0, 0.0, 0.0, 129.0, 0.0, 0.0], [0.0, 0.0, 0.0, 0.0, 166.0, 0.0], [0.0, 0.0, 0.0, 0.0, 0.0, 130.0]], 'homogeneous_poisson': 0.24, 'poisson_ratio': 0.24, 'universal_anisotropy': 0.2, 'elastic_tensor_original': [[424.2727449725874, 153.35326517123872, 120.56719809066898, 0.0, 0.0, 0.0], [144.58424296162863, 369.7333256840453, 131.4688306856176, 0.0, 0.0, 0.0], [104.56900999565902, 121.1169937883187, 286.6503665841563, 0.0, 0.0, 0.0], [6.888328324767182e-05, 3.5636640754138146e-05, 9.816992861953915e-05, 129.2873297992203, 0.0, 0.0], [-0.00012483975701855585, -0.0001309930783728869, -9.072982340790473e-05, 0.0, 166.12327716324353, 0.0], [2.7576612314538643e-05, 5.8839884029137176e-05, 0.00011074978171501122, 0.0, 0.0, 130.32657562852555]], 'compliance_tensor': [[2.9, -0.9, -0.7, 0.0, 0.0, -0.0], [-0.9, 3.5, -1.2, 0.0, 0.0, -0.0], [-0.7, -1.2, 4.3, 0.0, 0.0, 0.0], [0.0, 0.0, 0.0, 7.7, 0.0, 0.0], [0.0, 0.0, 0.0, 0.0, 6.0, 0.0], [-0.0, -0.0, 0.0, 0.0, 0.0, 7.7]], 'warnings': [], 'nsites': 5}",0.0,129.0,203.0,0.2,0.24,319.92
90,mp-5399,Tb(FeSi)2,"{'Tb': 1.0, 'Fe': 2.0, 'Si': 2.0}",0.1389395877509802,7.200878266867101,"{'G_Reuss': 80.0, 'G_VRH': 82.0, 'G_Voigt': 83.0, 'G_Voigt_Reuss_Hill': 82.0, 'K_Reuss': 137.0, 'K_VRH': 137.0, 'K_Voigt': 138.0, 'K_Voigt_Reuss_Hill': 137.0, 'elastic_anisotropy': 0.2, 'elastic_tensor': [[245.0, 85.0, 95.0, 0.0, 0.0, 0.0], [85.0, 245.0, 95.0, 0.0, 0.0, 0.0], [95.0, 95.0, 197.0, 0.0, 0.0, 0.0], [0.0, 0.0, 0.0, 89.0, 0.0, 0.0], [0.0, 0.0, 0.0, 0.0, 89.0, 0.0], [0.0, 0.0, 0.0, 0.0, 0.0, 100.0]], 'homogeneous_poisson': 0.25, 'poisson_ratio': 0.25, 'universal_anisotropy': 0.2, 'elastic_tensor_original': [[245.12282619507806, 85.24687174004782, 95.5958120171612, 1.0000109652152432e-05, 0.0, 0.0], [85.24687174004778, 245.12282619507806, 95.5958120171612, 0.0, -9.799747844528365e-06, 0.0], [94.50070262926648, 94.50070262926648, 197.39928706710973, 2.059973362873595e-05, 2.059973362873595e-05, 0.0], [0.0, 1.863449449289276e-07, 0.0, 88.90849108013626, -5.943930914539186e-07, 9.31721249349335e-08], [1.8634494701059976e-07, 0.0, 0.0, 5.943930915230433e-07, 88.90849108013626, 9.31728385831609e-08], [1.0039095498041208, -1.0039095498041677, 0.0, 4.500013671776783e-07, -4.413789153566998e-07, 100.38634966642373]], 'compliance_tensor': [[5.2, -1.0, -2.0, 0.0, -0.0, 0.0], [-1.0, 5.2, -2.0, -0.0, 0.0, 0.0], [-2.0, -2.0, 7.0, -0.0, -0.0, 0.0], [0.0, -0.0, -0.0, 11.2, 0.0, -0.0], [-0.0, 0.0, -0.0, 0.0, 11.2, -0.0], [0.0, 0.0, 0.0, -0.0, -0.0, 10.0]], 'warnings': ['Contains a rare earth element'], 'nsites': 5}",0.0,82.0,137.0,0.2,0.25,205.0