,mp_id,Formula,Composition,IPF,Density,Elastic_Tensor,E_above_Hull,G_VRH,K_VRH,Elastic_Anisotropy,poisson_ratio,Y_Modulus
52,mp-2260,FePt,"{'Fe': 1.0, 'Pt': 1.0}",0.16996073604521203,14.814623937197831,"{'G_Reuss': 86.0, 'G_VRH': 92.0, 'G_Voigt': 98.0, 'G_Voigt_Reuss_Hill': 92.0, 'K_Reuss': 201.0, 'K_VRH': 201.0, 'K_Voigt': 201.0, 'K_Voigt_Reuss_Hill': 201.0, 'elastic_anisotropy': 0.69, 'elastic_tensor': [[364.0, 77.0, 157.0, 0.0, 0.0, 0.0], [77.0, 364.0, 157.0, 0.0, 0.0, 0.0], [157.0, 157.0, 303.0, 0.0, 0.0, 0.0], [0.0, 0.0, 0.0, 112.0, 0.0, 0.0], [0.0, 0.0, 0.0, 0.0, 112.0, 0.0], [0.0, 0.0, 0.0, 0.0, 0.0, 53.0]], 'homogeneous_poisson': 0.3, 'poisson_ratio': 0.3, 'universal_anisotropy': 0.69, 'elastic_tensor_original': [[363.7973416415939, 77.22843567779533, 156.17554867204905, 0.0, 0.0, 0.0], [77.2283716395878, 363.7990632463723, 156.1765407816316, 0.0, 0.0, 0.0], [157.11610709807877, 157.11610709807877, 302.85177151051096, 0.0, 0.0, 0.0], [8.955334331316013e-05, 5.9300006610118646e-05, 8.76600097701103e-05, 112.47753741100064, 0.0, 0.0], [-0.0003601033734625688, -1.1263334584901365e-05, -0.000243303360443935, 0.0, 112.47770299101913, 0.0], [-6.242666636233063e-05, -1.9009999906942412e-05, 8.696666624499789e-05, 0.0, 0.0, 53.27496393035096]], 'compliance_tensor': [[3.5, 0.0, -1.9, 0.0, 0.0, -0.0], [0.0, 3.5, -1.9, 0.0, 0.0, -0.0], [-1.9, -1.9, 5.2, -0.0, -0.0, 0.0], [0.0, 0.0, -0.0, 8.9, 0.0, -0.0], [0.0, 0.0, -0.0, 0.0, 8.9, -0.0], [-0.0, -0.0, 0.0, -0.0, -0.0, 18.8]], 'warnings': [], 'nsites': 2}",0.0,92.0,201.0,0.69,0.3,239.20000000000002
53,mp-2866,Yb(FeSi)2,"{'Yb': 1.0, 'Fe': 2.0, 'Si': 2.0}",0.15772622596283298,7.537767409339553,"{'G_Reuss': 66.0, 'G_VRH': 68.0, 'G_Voigt': 70.0, 'G_Voigt_Reuss_Hill': 68.0, 'K_Reuss': 113.0, 'K_VRH': 115.0, 'K_Voigt': 117.0, 'K_Voigt_Reuss_Hill': 115.0, 'elastic_anisotropy': 0.28, 'elastic_tensor': [[222.0, 73.0, 79.0, 0.0, 0.0, 0.0], [73.0, 222.0, 79.0, 0.0, 0.0, 0.0], [79.0, 79.0, 149.0, 0.0, 0.0, 0.0], [0.0, 0.0, 0.0, 72.0, 0.0, 0.0], [0.0, 0.0, 0.0, 0.0, 72.0, 0.0], [0.0, 0.0, 0.0, 0.0, 0.0, 83.0]], 'homogeneous_poisson': 0.25, 'poisson_ratio': 0.25, 'universal_anisotropy': 0.28, 'elastic_tensor_original': [[222.35392363913448, 73.19389273465727, 84.91839053067027, 9.000063096033283e-06, -1.7800124789932496e-05, 0.0], [73.19389273498102, 222.35392364011426, 84.91839053104587, 2.399858339531675e-07, -9.000063090020933e-06, 0.0], [72.23721412727535, 72.23721412727535, 149.05813836272503, 1.5600133100198353e-05, -1.5600133100198353e-05, 0.0], [0.0, 1.531247444530659e-05, 0.0, 72.07882100533595, -9.681231531199412e-09, -7.656239522561001e-06], [-1.5312474439849907e-05, 0.0, 0.0, 9.681231601382689e-09, 72.07882100533597, 7.656232624280098e-06], [0.8260137278116026, -0.8260137278078251, 0.0, -1.2691571525522778e-07, -1.0000120181700977e-07, 82.59820164285732]], 'compliance_tensor': [[5.7, -1.0, -2.5, -0.0, 0.0, 0.0], [-1.0, 5.7, -2.5, 0.0, -0.0, 0.0], [-2.5, -2.5, 9.3, 0.0, 0.0, 0.0], [-0.0, 0.0, 0.0, 13.9, 0.0, 0.0], [0.0, -0.0, 0.0, 0.0, 13.9, 0.0], [0.0, 0.0, 0.0, 0.0, 0.0, 12.1]], 'warnings': ['Contains a rare earth element'], 'nsites': 5}",0.0,68.0,115.0,0.28,0.25,170.0
54,mp-31205,Zr3Fe,"{'Zr': 3.0, 'Fe': 1.0}",0.13175370668852934,6.80880443383841,"{'G_Reuss': 35.0, 'G_VRH': 36.0, 'G_Voigt': 37.0, 'G_Voigt_Reuss_Hill': 36.0, 'K_Reuss': 104.0, 'K_VRH': 104.0, 'K_Voigt': 104.0, 'K_Voigt_Reuss_Hill': 104.0, 'elastic_anisotropy': 0.17, 'elastic_tensor': [[143.0, 81.0, 84.0, 0.0, 0.0, 0.0], [81.0, 155.0, 72.0, 0.0, 0.0, 0.0], [84.0, 72.0, 162.0, 0.0, 0.0, 0.0], [0.0, 0.0, 0.0, 38.0, 0.0, 0.0], [0.0, 0.0, 0.0, 0.0, 43.0, 0.0], [0.0, 0.0, 0.0, 0.0, 0.0, 27.0]], 'homogeneous_poisson': 0.34, 'poisson_ratio': 0.34, 'universal_anisotropy': 0.17, 'elastic_tensor_original': [[162.4416938755465, 73.1609878009434, 82.84287691349452, 0.0, 0.0, 0.0], [71.83533838044025, 154.53364971392494, 79.017431742541, 0.0, 0.0, 0.0], [85.38919809972374, 82.66420267940296, 143.28264145387675, 0.0, 0.0, 0.0], [-0.02263912291809006, -0.017526673442256054, -0.02749686258611113, 27.328718349647165, 0.0, 0.0], [5.091293056950313e-05, 0.00017847282503364898, 8.204293439559517e-05, 0.0, 43.45736743792879, 0.0], [-0.1753898964817034, -0.0959001998192238, -0.1389567988600272, 0.0, 0.0, 37.508592491780234]], 'compliance_tensor': [[11.9, -4.2, -4.3, 0.0, 0.0, 0.0], [-4.2, 9.7, -2.1, 0.0, 0.0, 0.0], [-4.3, -2.1, 9.3, -0.0, 0.0, 0.0], [0.0, 0.0, -0.0, 26.7, 0.0, 0.0], [0.0, 0.0, 0.0, 0.0, 23.0, 0.0], [0.0, 0.0, 0.0, 0.0, 0.0, 36.6]], 'warnings': [], 'nsites': 8}",0.0,36.0,104.0,0.17,0.34,96.48
55,mp-3190,Er(FeB)2,"{'Er': 1.0, 'Fe': 2.0, 'B': 2.0}",0.17199723440842044,8.298256566490334,"{'G_Reuss': 78.0, 'G_VRH': 79.0, 'G_Voigt': 81.0, 'G_Voigt_Reuss_Hill': 79.0, 'K_Reuss': 117.0, 'K_VRH': 117.0, 'K_Voigt': 117.0, 'K_Voigt_Reuss_Hill': 117.0, 'elastic_anisotropy': 0.21, 'elastic_tensor': [[220.0, 58.0, 77.0, 0.0, 0.0, 0.0], [58.0, 220.0, 77.0, 0.0, 0.0, 0.0], [77.0, 77.0, 191.0, 0.0, 0.0, 0.0], [0.0, 0.0, 0.0, 77.0, 0.0, 0.0], [0.0, 0.0, 0.0, 0.0, 77.0, 0.0], [0.0, 0.0, 0.0, 0.0, 0.0, 110.0]], 'homogeneous_poisson': 0.22, 'poisson_ratio': 0.22, 'universal_anisotropy': 0.21, 'elastic_tensor_original': [[220.01087664121405, 58.10177774772952, 73.48224983696414, 8.000041657837908e-06, -8.000041657837908e-06, 0.0], [58.10177774772817, 220.01087664120888, 73.48224983696244, 7.83889931745353e-06, -8.000041658480073e-06, 0.0], [80.76472334203204, 80.76472334203204, 191.08142754353784, 2.0400090057753702e-05, -2.0400090057753702e-05, 0.0], [0.0, 1.6594353064078052e-05, 0.0, 76.98684630852797, 3.019162878179531e-08, -8.29717760882533e-06], [-1.6594353064648583e-05, 0.0, 0.0, -3.019162879694329e-08, 76.98684630852797, 8.29717460875077e-06], [1.1043004490361918, -1.1043004490363009, 0.0, -2.2149262140229905e-07, 1.9999722886347626e-07, 110.42302860083656]], 'compliance_tensor': [[5.4, -0.8, -1.9, -0.0, 0.0, 0.0], [-0.8, 5.4, -1.9, 0.0, -0.0, 0.0], [-1.9, -1.9, 6.7, 0.0, 0.0, 0.0], [-0.0, 0.0, 0.0, 13.0, 0.0, 0.0], [0.0, -0.0, 0.0, 0.0, 13.0, 0.0], [0.0, 0.0, 0.0, 0.0, 0.0, 9.1]], 'warnings': ['Contains a rare earth element'], 'nsites': 5}",0.0,79.0,117.0,0.21,0.22,192.76
56,mp-3489,Nd(FeSi)2,"{'Nd': 1.0, 'Fe': 2.0, 'Si': 2.0}",0.1929636306478071,6.569673706769142,"{'G_Reuss': 78.0, 'G_VRH': 80.0, 'G_Voigt': 81.0, 'G_Voigt_Reuss_Hill': 80.0, 'K_Reuss': 123.0, 'K_VRH': 125.0, 'K_Voigt': 128.0, 'K_Voigt_Reuss_Hill': 125.0, 'elastic_anisotropy': 0.25, 'elastic_tensor': [[244.0, 89.0, 79.0, 0.0, 0.0, 0.0], [89.0, 244.0, 79.0, 0.0, 0.0, 0.0], [79.0, 79.0, 166.0, 0.0, 0.0, 0.0], [0.0, 0.0, 0.0, 88.0, 0.0, 0.0], [0.0, 0.0, 0.0, 0.0, 88.0, 0.0], [0.0, 0.0, 0.0, 0.0, 0.0, 95.0]], 'homogeneous_poisson': 0.24, 'poisson_ratio': 0.24, 'universal_anisotropy': 0.25, 'elastic_tensor_original': [[243.8920469048685, 88.7686695723895, 73.55803246794561, 7.5998344716680615e-06, 7.5998344716680615e-06, 0.0], [88.7686695723895, 243.8920469048685, 73.55803246794561, 7.599834471748084e-06, -7.599834471588037e-06, 0.0], [85.41458400691637, 85.41458400691637, 166.3461100111366, 1.6999924927877602e-05, 1.6999924927877602e-05, 0.0], [0.0, 0.0, 0.0, 88.23914164203245, -1.0000079720527709e-07, 0.0], [0.0, 0.0, 0.0, 1.0000079720589665e-07, 88.23914164203245, 0.0], [0.9461921661536552, -0.9461921661536552, 0.0, 2.4999717718113214e-07, -2.4999717717867135e-07, 94.61342448076694]], 'compliance_tensor': [[5.2, -1.3, -1.9, 0.0, -0.0, 0.0], [-1.3, 5.2, -1.9, -0.0, 0.0, 0.0], [-1.9, -1.9, 7.8, -0.0, -0.0, 0.0], [0.0, -0.0, -0.0, 11.3, 0.0, -0.0], [-0.0, 0.0, -0.0, 0.0, 11.3, -0.0], [0.0, 0.0, 0.0, -0.0, -0.0, 10.6]], 'warnings': ['Contains a rare earth element'], 'nsites': 5}",0.0,80.0,125.0,0.25,0.24,198.4
57,mp-3701,Sc(Al2Fe)4,"{'Sc': 1.0, 'Al': 8.0, 'Fe': 4.0}",0.12759692236827402,4.348807153271613,"{'G_Reuss': 84.0, 'G_VRH': 85.0, 'G_Voigt': 87.0, 'G_Voigt_Reuss_Hill': 85.0, 'K_Reuss': 126.0, 'K_VRH': 126.0, 'K_Voigt': 126.0, 'K_Voigt_Reuss_Hill': 126.0, 'elastic_anisotropy': 0.19, 'elastic_tensor': [[270.0, 56.0, 56.0, 0.0, 0.0, 0.0], [56.0, 270.0, 52.0, 0.0, 0.0, 0.0], [56.0, 52.0, 270.0, 0.0, 0.0, 0.0], [0.0, 0.0, 0.0, 78.0, 0.0, 0.0], [0.0, 0.0, 0.0, 0.0, 71.0, 0.0], [0.0, 0.0, 0.0, 0.0, 0.0, 71.0]], 'homogeneous_poisson': 0.22, 'poisson_ratio': 0.22, 'universal_anisotropy': 0.19, 'elastic_tensor_original': [[270.0184194347734, 51.69205123726385, 55.01150542626034, 0.0, 0.0, 0.0], [51.692353284366895, 270.0178810500817, 55.013484632126485, 0.0, 0.0, 0.0], [56.99326300288833, 56.99326300288833, 270.42349723619304, 0.0, 0.0, 0.0], [0.00022906314098144502, -1.1133323990587865e-06, -6.497994543365804e-05, 70.5254584274556, 0.0, 0.0], [4.3206630385576475e-05, -6.06610601720324e-05, 5.425773221660144e-05, 0.0, 70.52537377641559, 0.0], [-0.0006318228024033774, -0.00040565632578742325, -0.0002953664184663466, 0.0, 0.0, 78.38330340674304]], 'compliance_tensor': [[4.0, -0.7, -0.7, -0.0, 0.0, -0.0], [-0.7, 4.0, -0.6, 0.0, -0.0, 0.0], [-0.7, -0.6, 4.0, 0.0, 0.0, -0.0], [-0.0, 0.0, 0.0, 12.8, 0.0, -0.0], [0.0, -0.0, 0.0, 0.0, 14.2, 0.0], [-0.0, 0.0, -0.0, -0.0, 0.0, 14.2]], 'warnings': [], 'nsites': 13}",0.0,85.0,126.0,0.19,0.22,207.4
58,mp-505531,FeS,"{'Fe': 1.0, 'S': 1.0}",0.15456986974137746,4.140337296357572,"{'G_Reuss': 4.0, 'G_VRH': 19.0, 'G_Voigt': 33.0, 'G_Voigt_Reuss_Hill': 19.0, 'K_Reuss': 9.0, 'K_VRH': 30.0, 'K_Voigt': 51.0, 'K_Voigt_Reuss_Hill': 30.0, 'elastic_anisotropy': 47.19, 'elastic_tensor': [[137.0, 81.0, 3.0, 0.0, 0.0, 0.0], [81.0, 137.0, 3.0, 0.0, 0.0, 0.0], [3.0, 3.0, 9.0, 0.0, 0.0, 0.0], [0.0, 0.0, 0.0, 2.0, 0.0, 0.0], [0.0, 0.0, 0.0, 0.0, 2.0, 0.0], [0.0, 0.0, 0.0, 0.0, 0.0, 99.0]], 'homogeneous_poisson': 0.24, 'poisson_ratio': 0.24, 'universal_anisotropy': 47.19, 'elastic_tensor_original': [[136.73846847470307, 81.0979536089704, 1.5081486924550453, 0.0, 0.0, 0.0], [81.10025786160982, 136.74143563562345, 1.5099027341889382, 0.0, 0.0, 0.0], [3.9239974752026483, 3.9239974752026483, 9.250848053886541, 0.0, 0.0, 0.0], [0.00012817657318909732, -2.5023315084528758e-05, 5.799995770632921e-06, 1.639458744365793, 0.0, 0.0], [-3.2683309498129604e-05, 4.0889970179297665e-05, 6.697995115260447e-05, 0.0, 1.639298501149323, 0.0], [-0.0001556031986273774, -0.00019350649914909375, -0.00014867653795780757, 0.0, 0.0, 98.75300869645562]], 'compliance_tensor': [[11.3, -6.7, -1.4, -0.0, -0.0, 0.0], [-6.7, 11.3, -1.4, 0.0, -0.0, 0.0], [-1.4, -1.4, 108.9, 0.0, 0.0, 0.0], [-0.0, 0.0, 0.0, 610.0, 0.0, 0.0], [-0.0, -0.0, 0.0, 0.0, 610.0, 0.0], [0.0, 0.0, 0.0, 0.0, 0.0, 10.1]], 'warnings': [], 'nsites': 4}",0.0,19.0,30.0,47.19,0.24,47.12
59,mp-505554,Sc(FeSi)2,"{'Sc': 1.0, 'Fe': 2.0, 'Si': 2.0}",0.14361618887288816,5.391728237009906,"{'G_Reuss': 108.0, 'G_VRH': 110.0, 'G_Voigt': 112.0, 'G_Voigt_Reuss_Hill': 110.0, 'K_Reuss': 172.0, 'K_VRH': 172.0, 'K_Voigt': 172.0, 'K_Voigt_Reuss_Hill': 172.0, 'elastic_anisotropy': 0.18, 'elastic_tensor': [[341.0, 108.0, 84.0, 0.0, 0.0, 0.0], [108.0, 350.0, 62.0, 0.0, 0.0, 0.0], [84.0, 62.0, 352.0, 0.0, 0.0, 0.0], [0.0, 0.0, 0.0, 81.0, 0.0, 0.0], [0.0, 0.0, 0.0, 0.0, 107.0, 0.0], [0.0, 0.0, 0.0, 0.0, 0.0, 111.0]], 'homogeneous_poisson': 0.24, 'poisson_ratio': 0.24, 'universal_anisotropy': 0.18, 'elastic_tensor_original': [[351.62366956654597, 80.22295468089864, 58.455145922058655, 0.0, 0.0, 0.0], [87.95899667783067, 341.2010589220163, 107.62528191216839, 0.0, 0.0, 0.0], [66.29516362252023, 107.61038814610964, 350.19293014759234, 0.0, 0.0, 0.0], [-0.0009189236871736232, -0.0005052835278964878, -0.001173183785079561, 111.02787824575864, 0.0, 0.0], [0.0012531326306261998, 0.0009885594456552481, 0.0010284327566285492, 0.0, 81.28763413042715, 0.0], [-6.666662285063866e-06, -8.695660954181631e-05, -0.00028263648099533987, 0.0, 0.0, 106.73981008311952]], 'compliance_tensor': [[3.4, -0.9, -0.6, 0.0, 0.0, 0.0], [-0.9, 3.2, -0.3, 0.0, 0.0, 0.0], [-0.6, -0.3, 3.1, 0.0, 0.0, -0.0], [0.0, 0.0, 0.0, 12.3, 0.0, 0.0], [0.0, 0.0, 0.0, 0.0, 9.4, 0.0], [0.0, 0.0, -0.0, 0.0, 0.0, 9.0]], 'warnings': [], 'nsites': 20}",0.0,110.0,172.0,0.18,0.24,272.8
60,mp-568725,Dy(FeB)2,"{'Dy': 1.0, 'Fe': 2.0, 'B': 2.0}",0.1928314060287035,8.008231829204718,"{'G_Reuss': 73.0, 'G_VRH': 75.0, 'G_Voigt': 76.0, 'G_Voigt_Reuss_Hill': 75.0, 'K_Reuss': 113.0, 'K_VRH': 113.0, 'K_Voigt': 113.0, 'K_Voigt_Reuss_Hill': 113.0, 'elastic_anisotropy': 0.2, 'elastic_tensor': [[217.0, 55.0, 72.0, 0.0, 0.0, 0.0], [55.0, 217.0, 72.0, 0.0, 0.0, 0.0], [72.0, 72.0, 183.0, 0.0, 0.0, 0.0], [0.0, 0.0, 0.0, 69.0, 0.0, 0.0], [0.0, 0.0, 0.0, 0.0, 69.0, 0.0], [0.0, 0.0, 0.0, 0.0, 0.0, 104.0]], 'homogeneous_poisson': 0.23, 'poisson_ratio': 0.23, 'universal_anisotropy': 0.2, 'elastic_tensor_original': [[217.42462139254215, 55.09689925793755, 72.59695821429948, -1.540020394761233e-05, -1.540020394761233e-05, 0.0], [55.096899257934275, 217.42462139254215, 72.59695821429948, -1.5400203947452773e-05, -7.072768034591155e-08, 0.0], [70.73761212136, 70.73761212136, 182.91330529930462, -3.8799833760279776e-05, -3.8799833760279776e-05, 0.0], [0.0, -1.4661329325383186e-05, 0.0, 68.79793744246201, 4.3490099541975016e-07, -7.330661566231347e-06], [-1.4661329325383186e-05, 0.0, 0.0, -4.3490099541458315e-07, 68.79793744246201, -7.330666502825339e-06], [1.044499971388316, -1.0444999713949272, 0.0, -4.4999955683784773e-07, 4.098706471341766e-07, 104.44471494436381]], 'compliance_tensor': [[5.4, -0.8, -1.8, -0.0, 0.0, 0.0], [-0.8, 5.4, -1.8, 0.0, -0.0, 0.0], [-1.8, -1.8, 6.9, 0.0, 0.0, 0.0], [-0.0, 0.0, 0.0, 14.5, 0.0, 0.0], [0.0, -0.0, 0.0, 0.0, 14.5, 0.0], [0.0, 0.0, 0.0, 0.0, 0.0, 9.6]], 'warnings': ['Contains a rare earth element'], 'nsites': 5}",0.0,75.0,113.0,0.2,0.23,184.5
61,mp-5778,AlVFe2,"{'Al': 1.0, 'V': 1.0, 'Fe': 2.0}",0.18172229698259232,6.773327621235783,"{'G_Reuss': 137.0, 'G_VRH': 137.0, 'G_Voigt': 137.0, 'G_Voigt_Reuss_Hill': 137.0, 'K_Reuss': 218.0, 'K_VRH': 218.0, 'K_Voigt': 218.0, 'K_Voigt_Reuss_Hill': 218.0, 'elastic_anisotropy': 0.0, 'elastic_tensor': [[405.0, 124.0, 124.0, 0.0, 0.0, 0.0], [124.0, 405.0, 124.0, 0.0, 0.0, 0.0], [124.0, 124.0, 405.0, 0.0, 0.0, 0.0], [0.0, 0.0, 0.0, 134.0, 0.0, 0.0], [0.0, 0.0, 0.0, 0.0, 134.0, 0.0], [0.0, 0.0, 0.0, 0.0, 0.0, 134.0]], 'homogeneous_poisson': 0.24, 'poisson_ratio': 0.24, 'universal_anisotropy': 0.0, 'elastic_tensor_original': [[405.1718877279809, 123.79134215192585, 123.79134215192585, 0.0, 0.0, 0.0], [123.76664864132934, 405.14895429531225, 123.76664864132934, 0.0, 0.0, 0.0], [123.78292032957859, 123.78292032957859, 405.16158813829395, 0.0, 0.0, 0.0], [-0.0005208794332286853, -0.0002243492179556196, -0.0008001851169734334, 134.3340138825305, 0.0, 0.0], [-0.0007838522947384558, -0.0007172091786969771, -0.001014032120007485, 0.0, 134.3339508086709, 0.0], [-0.00016196975454492056, -0.0006229187301807547, -0.0002584256596489499, 0.0, 0.0, 134.3336303769956]], 'compliance_tensor': [[2.9, -0.7, -0.7, -0.0, -0.0, 0.0], [-0.7, 2.9, -0.7, 0.0, -0.0, -0.0], [-0.7, -0.7, 2.9, -0.0, 0.0, -0.0], [-0.0, 0.0, -0.0, 7.4, -0.0, -0.0], [-0.0, -0.0, 0.0, -0.0, 7.4, -0.0], [0.0, -0.0, -0.0, -0.0, -0.0, 7.4]], 'warnings': [], 'nsites': 4}",0.0,137.0,218.0,0.0,0.24,339.76
62,mp-7600,Th(FeSi)2,"{'Th': 1.0, 'Fe': 2.0, 'Si': 2.0}",0.15089079406668066,8.501325575542893,"{'G_Reuss': 87.0, 'G_VRH': 88.0, 'G_Voigt': 90.0, 'G_Voigt_Reuss_Hill': 88.0, 'K_Reuss': 152.0, 'K_VRH': 154.0, 'K_Voigt': 155.0, 'K_Voigt_Reuss_Hill': 154.0, 'elastic_anisotropy': 0.22, 'elastic_tensor': [[268.0, 129.0, 97.0, 0.0, 0.0, 0.0], [129.0, 268.0, 97.0, 0.0, 0.0, 0.0], [97.0, 97.0, 219.0, 0.0, 0.0, 0.0], [0.0, 0.0, 0.0, 96.0, 0.0, 0.0], [0.0, 0.0, 0.0, 0.0, 96.0, 0.0], [0.0, 0.0, 0.0, 0.0, 0.0, 114.0]], 'homogeneous_poisson': 0.26, 'poisson_ratio': 0.26, 'universal_anisotropy': 0.22, 'elastic_tensor_original': [[267.8477385311013, 128.6452643347126, 93.93259309090998, -9.800073020256318e-06, -9.800073020256318e-06, 0.0], [128.64526433471258, 267.8477385311013, 93.93259309090998, -9.800073022336553e-06, -9.721121482210063e-06, 0.0], [99.53593379740681, 99.53593379740681, 218.7061360791525, -2.260035071196673e-05, -2.260035071196673e-05, 0.0], [0.0, -1.999047226504997e-05, 0.0, 96.19099123738347, -4.019351821592839e-08, -9.995214126341355e-06], [-1.999047226684423e-05, 0.0, 0.0, 4.0193518348381205e-08, 96.19099123738347, -9.995268886580123e-06], [1.1434201093250345, -1.1434201093229173, 0.0, 1.4999973885281251e-07, -1.1829027771480845e-07, 114.33608194272016]], 'compliance_tensor': [[5.2, -2.0, -1.4, -0.0, 0.0, 0.0], [-2.0, 5.2, -1.4, 0.0, -0.0, 0.0], [-1.4, -1.4, 5.8, 0.0, 0.0, 0.0], [-0.0, 0.0, 0.0, 10.4, 0.0, 0.0], [0.0, -0.0, 0.0, 0.0, 10.4, 0.0], [0.0, 0.0, 0.0, 0.0, 0.0, 8.7]], 'warnings': ['Contains a rare earth element'], 'nsites': 5}",0.0,88.0,154.0,0.22,0.26,221.76
63,mp-862288,AlFe2W,"{'Al': 1.0, 'Fe': 2.0, 'W': 1.0}",0.16552365154728016,10.595547042879602,"{'G_Reuss': 46.0, 'G_VRH': 64.0, 'G_Voigt': 82.0, 'G_Voigt_Reuss_Hill': 64.0, 'K_Reuss': 232.0, 'K_VRH': 232.0, 'K_Voigt': 232.0, 'K_Voigt_Reuss_Hill': 232.0, 'elastic_anisotropy': 3.85, 'elastic_tensor': [[264.0, 216.0, 216.0, -0.0, 0.0, -0.0], [216.0, 264.0, 216.0, -0.0, 0.0, -0.0], [216.0, 216.0, 264.0, -0.0, 0.0, -0.0], [-0.0, -0.0, -0.0, 120.0, -0.0, 0.0], [0.0, 0.0, 0.0, -0.0, 120.0, -0.0], [-0.0, -0.0, -0.0, 0.0, -0.0, 120.0]], 'homogeneous_poisson': 0.37, 'poisson_ratio': 0.37, 'universal_anisotropy': 3.85, 'elastic_tensor_original': [[263.68839468423187, 215.5591907663507, 215.5591907663507, -4.521566020734583, 4.685331953979673, -4.685331953979673], [215.5573495510193, 263.68472621660027, 215.5573495510194, 4.590220850935403, 4.519741953237821, 4.590212250813594], [215.55742084990308, 215.55559750826077, 263.68656027715195, 4.590181164371574, 4.683530737951472, 4.435885767982609], [0.661926679445519, 0.91433089674078, 0.13708489246606376, 119.70973529381473, 1.540271390118445, -1.5323974191430805], [-1.0578833745172465, -1.322590071142313, -1.0890078376239736, -2.3029488856757374, 122.05469785183446, -1.5473012284704646], [1.722514237948978, -0.6714567186114015, 0.6623289882327352, -1.5491473102145894, -0.01078216373523257, 119.70987993987943]], 'compliance_tensor': [[14.3, -6.4, -6.4, -0.0, -0.0, 0.0], [-6.4, 14.3, -6.4, 0.0, 0.0, -0.0], [-6.4, -6.4, 14.3, -0.0, 0.0, -0.0], [-0.0, 0.0, -0.0, 8.3, 0.0, -0.0], [-0.0, 0.0, 0.0, 0.0, 8.3, 0.0], [0.0, -0.0, -0.0, -0.0, 0.0, 8.3]], 'warnings': [], 'nsites': 4}",0.0,64.0,232.0,3.85,0.37,175.36
64,mp-864764,Ta2FeOs,"{'Ta': 2.0, 'Fe': 1.0, 'Os': 1.0}",0.13595772431198383,16.164722811212954,"{'G_Reuss': 81.0, 'G_VRH': 83.0, 'G_Voigt': 84.0, 'G_Voigt_Reuss_Hill': 83.0, 'K_Reuss': 249.0, 'K_VRH': 249.0, 'K_Voigt': 249.0, 'K_Voigt_Reuss_Hill': 249.0, 'elastic_anisotropy': 0.19, 'elastic_tensor': [[336.0, 205.0, 205.0, 0.0, 0.0, 0.0], [205.0, 336.0, 205.0, 0.0, 0.0, 0.0], [205.0, 205.0, 336.0, 0.0, 0.0, 0.0], [0.0, 0.0, 0.0, 97.0, 0.0, 0.0], [0.0, 0.0, 0.0, 0.0, 97.0, 0.0], [0.0, 0.0, 0.0, 0.0, 0.0, 97.0]], 'homogeneous_poisson': 0.35, 'poisson_ratio': 0.35, 'universal_anisotropy': 0.19, 'elastic_tensor_original': [[335.04628853253973, 204.22761677595645, 204.22761677595645, 0.0, 0.0, 0.0], [208.28625508817748, 338.9609142819952, 208.28625508817748, 0.0, 0.0, 0.0], [202.24258656718987, 202.24258656718987, 333.0763920344576, 0.0, 0.0, 0.0], [-0.0006464704088641473, -0.0006524970793434871, -0.0006333904005931403, 96.96689844419637, 0.0, 0.0], [-0.00019075678731044973, -0.00020326679522195061, -0.00019838012546718174, 0.0, 96.96691589087408, 0.0], [0.0007521338090291278, 0.0007618004818072559, 0.0007313904625770919, 0.0, 0.0, 96.96690305419926]], 'compliance_tensor': [[5.5, -2.1, -2.1, -0.0, 0.0, 0.0], [-2.1, 5.5, -2.1, 0.0, -0.0, 0.0], [-2.1, -2.1, 5.5, 0.0, 0.0, -0.0], [-0.0, 0.0, 0.0, 10.3, -0.0, -0.0], [0.0, -0.0, 0.0, -0.0, 10.3, -0.0], [0.0, 0.0, -0.0, -0.0, -0.0, 10.3]], 'warnings': [], 'nsites': 8}",0.0,83.0,249.0,0.19,0.35,224.10000000000002