,mp_id,Formula,Composition,IPF,Density,Elastic_Tensor,E_above_Hull,G_VRH,K_VRH,Elastic_Anisotropy,poisson_ratio,Y_Modulus
39,mp-778,Fe2P,"{'Fe': 2.0, 'P': 1.0}",0.1760389680764239,7.083597008639862,"{'G_Reuss': 87.0, 'G_VRH': 89.0, 'G_Voigt': 91.0, 'G_Voigt_Reuss_Hill': 89.0, 'K_Reuss': 216.0, 'K_VRH': 216.0, 'K_Voigt': 216.0, 'K_Voigt_Reuss_Hill': 216.0, 'elastic_anisotropy': 0.23, 'elastic_tensor': [[329.0, 138.0, 177.0, 0.0, 0.0, 0.0], [138.0, 329.0, 177.0, 0.0, 0.0, 0.0], [177.0, 177.0, 298.0, 0.0, 0.0, 0.0], [0.0, 0.0, 0.0, 102.0, 0.0, 0.0], [0.0, 0.0, 0.0, 0.0, 102.0, 0.0], [0.0, 0.0, 0.0, 0.0, 0.0, 95.0]], 'homogeneous_poisson': 0.32, 'poisson_ratio': 0.32, 'universal_anisotropy': 0.23, 'elastic_tensor_original': [[329.05152955889554, 137.3681182197298, 177.84344445135008, 0.0, 0.0, 0.0], [137.05709094914621, 329.35164820198156, 177.87605491906402, 0.0, 0.0, 0.0], [177.1158021011098, 177.1158167997495, 298.0536934176648, 0.0, 0.0, 0.0], [0.0005636074258703786, -0.00017936024160146105, 0.0004473272692355906, 102.28581485326423, 0.0, 0.0], [0.0008138600230353888, 0.0006722321147034406, 0.0004678129141003388, 0.0, 102.28665579157573, 0.0], [-3.8326695308860705e-05, -8.42667034891657e-06, 6.317337448455347e-05, 0.0, 0.0, 94.60468957270365]], 'compliance_tensor': [[4.6, -0.7, -2.3, -0.0, -0.0, 0.0], [-0.7, 4.6, -2.3, -0.0, -0.0, 0.0], [-2.3, -2.3, 6.1, 0.0, 0.0, -0.0], [-0.0, -0.0, 0.0, 9.8, 0.0, -0.0], [-0.0, -0.0, 0.0, 0.0, 9.8, 0.0], [0.0, 0.0, -0.0, 0.0, -0.0, 10.5]], 'warnings': [], 'nsites': 9}",0.0,89.0,216.0,0.23,0.32,234.96
40,mp-865212,Fe3Re,"{'Fe': 3.0, 'Re': 1.0}",0.20385700488606553,12.874922439317723,"{'G_Reuss': 176.0, 'G_VRH': 177.0, 'G_Voigt': 178.0, 'G_Voigt_Reuss_Hill': 177.0, 'K_Reuss': 310.0, 'K_VRH': 310.0, 'K_Voigt': 310.0, 'K_Voigt_Reuss_Hill': 310.0, 'elastic_anisotropy': 0.07, 'elastic_tensor': [[544.0, 214.0, 163.0, 0.0, 0.0, 0.0], [214.0, 544.0, 163.0, 0.0, 0.0, 0.0], [163.0, 163.0, 620.0, 0.0, 0.0, 0.0], [0.0, 0.0, 0.0, 168.0, 0.0, 0.0], [0.0, 0.0, 0.0, 0.0, 168.0, 0.0], [0.0, 0.0, 0.0, 0.0, 0.0, 165.0]], 'homogeneous_poisson': 0.26, 'poisson_ratio': 0.26, 'universal_anisotropy': 0.07, 'elastic_tensor_original': [[547.1210949168386, 211.91748893194108, 164.42335979098348, 0.0, 0.0, 0.0], [210.7442365740073, 546.1863808554521, 162.13154045364894, 0.0, 0.0, 0.0], [162.7385103185067, 162.73849599916161, 620.3831437301113, 0.0, 0.0, 0.0], [0.04702386573698835, -0.04942860841684705, -0.008322695941524488, 168.3289646933916, 0.0, 0.0], [-0.024969572519147703, -0.005046789941316927, -0.006664883128686092, 0.0, 168.31343959220666, 0.0], [0.20478748718274067, 0.05148931582997759, 0.1389787647035693, 0.0, 0.0, 161.75086470406026]], 'compliance_tensor': [[2.3, -0.8, -0.4, 0.0, -0.0, -0.0], [-0.8, 2.3, -0.4, -0.0, 0.0, -0.0], [-0.4, -0.4, 1.8, -0.0, 0.0, 0.0], [0.0, -0.0, -0.0, 5.9, -0.0, -0.0], [-0.0, 0.0, 0.0, -0.0, 5.9, 0.0], [-0.0, -0.0, 0.0, -0.0, 0.0, 6.1]], 'warnings': [], 'nsites': 8}",0.47753395833183276,177.0,310.0,0.07,0.26,446.04
41,mp-866134,VFe3,"{'V': 1.0, 'Fe': 3.0}",0.20810172516849768,7.73981484162752,"{'G_Reuss': 85.0, 'G_VRH': 90.0, 'G_Voigt': 95.0, 'G_Voigt_Reuss_Hill': 90.0, 'K_Reuss': 193.0, 'K_VRH': 193.0, 'K_Voigt': 193.0, 'K_Voigt_Reuss_Hill': 193.0, 'elastic_anisotropy': 0.55, 'elastic_tensor': [[274.0, 153.0, 153.0, 0.0, 0.0, 0.0], [153.0, 274.0, 153.0, 0.0, 0.0, 0.0], [153.0, 153.0, 274.0, 0.0, 0.0, 0.0], [0.0, 0.0, 0.0, 118.0, 0.0, 0.0], [0.0, 0.0, 0.0, 0.0, 118.0, 0.0], [0.0, 0.0, 0.0, 0.0, 0.0, 118.0]], 'homogeneous_poisson': 0.3, 'poisson_ratio': 0.3, 'universal_anisotropy': 0.55, 'elastic_tensor_original': [[274.28750904442376, 153.08084488534678, 153.0809519092528, 0.0, 0.0, 0.0], [153.079600590651, 274.2946678437807, 153.07965409261996, 0.0, 0.0, 0.0], [153.10235666731916, 153.10230314528167, 274.3083253205252, 0.0, 0.0, 0.0], [9.265094641798087e-05, -6.476814325741433e-05, -0.00021905578691572885, 117.58526296869411, 0.0, 0.0], [-5.142797616997937e-06, 9.217256666310796e-06, 6.440188816399248e-07, 0.0, 117.58680916766887, 0.0], [0.00013133857104199924, 0.00010525515615511208, 0.00010322516096871334, 0.0, 0.0, 117.58642540324394]], 'compliance_tensor': [[6.1, -2.2, -2.2, -0.0, -0.0, 0.0], [-2.2, 6.1, -2.2, 0.0, 0.0, 0.0], [-2.2, -2.2, 6.1, 0.0, -0.0, -0.0], [-0.0, 0.0, 0.0, 8.5, 0.0, -0.0], [-0.0, 0.0, -0.0, 0.0, 8.5, 0.0], [0.0, 0.0, -0.0, -0.0, 0.0, 8.5]], 'warnings': [], 'nsites': 4}",0.0,90.0,193.0,0.55,0.3,234.0
42,mp-871,FeSi,"{'Fe': 1.0, 'Si': 1.0}",0.14791894463886804,6.333879896320733,"{'G_Reuss': 138.0, 'G_VRH': 139.0, 'G_Voigt': 139.0, 'G_Voigt_Reuss_Hill': 139.0, 'K_Reuss': 211.0, 'K_VRH': 211.0, 'K_Voigt': 211.0, 'K_Voigt_Reuss_Hill': 211.0, 'elastic_anisotropy': 0.06, 'elastic_tensor': [[374.0, 130.0, 130.0, 0.0, 0.0, 0.0], [130.0, 374.0, 130.0, 0.0, 0.0, 0.0], [130.0, 130.0, 374.0, 0.0, 0.0, 0.0], [0.0, 0.0, 0.0, 151.0, 0.0, 0.0], [0.0, 0.0, 0.0, 0.0, 151.0, 0.0], [0.0, 0.0, 0.0, 0.0, 0.0, 151.0]], 'homogeneous_poisson': 0.23, 'poisson_ratio': 0.23, 'universal_anisotropy': 0.06, 'elastic_tensor_original': [[374.0318131987595, 130.22784127585282, 130.08827334173085, 0.0, 0.0, 0.0], [130.08778248359056, 374.0316839398107, 130.23102457894572, 0.0, 0.0, 0.0], [130.22662333753374, 130.08620420273397, 374.031541581044, 0.0, 0.0, 0.0], [-0.00010602771982476949, -6.864075515985807e-05, -0.00041373407653696125, 151.17981716859555, 0.0, 0.0], [-0.00022231975041067092, -0.0002785866949109195, -0.00029035309774362746, 0.0, 150.74726827977045, 0.0], [5.3742887036584906e-05, 0.0003155303731857165, 0.00031537047708998, 0.0, 0.0, 151.17997129518486]], 'compliance_tensor': [[3.3, -0.8, -0.8, 0.0, 0.0, 0.0], [-0.8, 3.3, -0.8, 0.0, 0.0, 0.0], [-0.8, -0.8, 3.3, 0.0, 0.0, 0.0], [0.0, 0.0, 0.0, 6.6, 0.0, 0.0], [0.0, 0.0, 0.0, 0.0, 6.6, 0.0], [0.0, 0.0, 0.0, 0.0, 0.0, 6.6]], 'warnings': [], 'nsites': 8}",0.0,139.0,211.0,0.06,0.23,341.94
43,mp-971669,FeSb3,"{'Fe': 1.0, 'Sb': 3.0}",0.10119575205206091,7.235385105312516,"{'G_Reuss': 42.0, 'G_VRH': 44.0, 'G_Voigt': 47.0, 'G_Voigt_Reuss_Hill': 44.0, 'K_Reuss': 82.0, 'K_VRH': 82.0, 'K_Voigt': 82.0, 'K_Voigt_Reuss_Hill': 82.0, 'elastic_anisotropy': 0.56, 'elastic_tensor': [[170.0, 38.0, 38.0, 0.0, 0.0, 0.0], [38.0, 170.0, 38.0, 0.0, 0.0, 0.0], [38.0, 38.0, 170.0, 0.0, 0.0, 0.0], [0.0, 0.0, 0.0, 34.0, 0.0, 0.0], [0.0, 0.0, 0.0, 0.0, 34.0, 0.0], [0.0, 0.0, 0.0, 0.0, 0.0, 34.0]], 'homogeneous_poisson': 0.27, 'poisson_ratio': 0.27, 'universal_anisotropy': 0.56, 'elastic_tensor_original': [[170.44262245030245, 38.10136310354247, 37.88025363235682, 0.0, 0.0, 0.0], [37.89587455572437, 170.46094015131027, 38.11686077780072, 0.0, 0.0, 0.0], [37.25592695826897, 37.07039700381177, 169.14584587074603, 0.0, 0.0, 0.0], [-0.017509132181255438, -0.018298511678477198, -0.01827633502593543, 33.74255124171712, 0.0, 0.0], [-4.3453305656998415e-05, 0.0010488926652629151, -0.001231039215915492, 0.0, 33.83913264020161, 0.0], [-0.005416299883533932, -0.005449943195438941, -0.0053934265647688304, 0.0, 0.0, 33.743478074460135]], 'compliance_tensor': [[6.4, -1.2, -1.2, 0.0, -0.0, -0.0], [-1.2, 6.4, -1.2, -0.0, 0.0, -0.0], [-1.2, -1.2, 6.4, -0.0, -0.0, 0.0], [0.0, -0.0, -0.0, 29.6, 0.0, 0.0], [-0.0, 0.0, -0.0, 0.0, 29.6, 0.0], [-0.0, -0.0, 0.0, 0.0, 0.0, 29.6]], 'warnings': [], 'nsites': 16}",0.0,44.0,82.0,0.56,0.27,111.76
44,mp-983590,Be3Fe,"{'Be': 3.0, 'Fe': 1.0}",0.15205066659283703,4.042916437987318,"{'G_Reuss': 61.0, 'G_VRH': 82.0, 'G_Voigt': 103.0, 'G_Voigt_Reuss_Hill': 82.0, 'K_Reuss': 155.0, 'K_VRH': 155.0, 'K_Voigt': 155.0, 'K_Voigt_Reuss_Hill': 155.0, 'elastic_anisotropy': 3.48, 'elastic_tensor': [[197.0, 133.0, 133.0, 0.0, 0.0, 0.0], [133.0, 197.0, 133.0, 0.0, 0.0, 0.0], [133.0, 133.0, 197.0, 0.0, 0.0, 0.0], [0.0, 0.0, 0.0, 150.0, 0.0, 0.0], [0.0, 0.0, 0.0, 0.0, 150.0, 0.0], [0.0, 0.0, 0.0, 0.0, 0.0, 150.0]], 'homogeneous_poisson': 0.28, 'poisson_ratio': 0.28, 'universal_anisotropy': 3.48, 'elastic_tensor_original': [[197.41822508333595, 133.35990664740987, 133.35949583553386, -0.00024640712328350924, 0.00010160293719807032, -0.00020320587439614065], [133.4693850692341, 197.45999928046422, 133.46864504967613, -0.000304808055787764, 8.220217252544027e-05, -0.00020320537052517595], [133.32807237183468, 133.32774376406616, 197.2796796339751, -0.0003046072011340263, 0.00010160240195409411, -0.00016420388189825053], [0.25326819181350846, 0.3753799207886979, -0.6227049485900414, 149.89232524187938, -9.277096672933743e-05, 4.665450008032203e-05], [0.0739249845988263, -0.12187617809699595, 0.07205758918917848, -9.26517484890856e-05, 150.15303578768396, -0.00013899904189514933], [1.5516995288494806, -1.4511112161224462, -0.13140390796139576, 4.767693678531457e-05, -0.00013905917493956666, 150.13329504868167]], 'compliance_tensor': [[11.1, -4.5, -4.5, -0.0, -0.0, 0.0], [-4.5, 11.1, -4.5, 0.0, 0.0, -0.0], [-4.5, -4.5, 11.1, -0.0, 0.0, -0.0], [-0.0, 0.0, -0.0, 6.7, 0.0, -0.0], [-0.0, 0.0, 0.0, 0.0, 6.7, 0.0], [0.0, -0.0, -0.0, -0.0, 0.0, 6.7]], 'warnings': [], 'nsites': 4}",0.0,82.0,155.0,3.48,0.28,209.92000000000002
45,mp-1018725,HoFeSi,"{'Ho': 1.0, 'Fe': 1.0, 'Si': 1.0}",0.152978948933995,7.921780119084059,"{'G_Reuss': 53.0, 'G_VRH': 57.0, 'G_Voigt': 61.0, 'G_Voigt_Reuss_Hill': 57.0, 'K_Reuss': 88.0, 'K_VRH': 92.0, 'K_Voigt': 95.0, 'K_Voigt_Reuss_Hill': 92.0, 'elastic_anisotropy': 0.87, 'elastic_tensor': [[199.0, 57.0, 58.0, 0.0, 0.0, 0.0], [57.0, 199.0, 58.0, 0.0, 0.0, 0.0], [58.0, 58.0, 111.0, 0.0, 0.0, 0.0], [0.0, 0.0, 0.0, 45.0, 0.0, 0.0], [0.0, 0.0, 0.0, 0.0, 45.0, 0.0], [0.0, 0.0, 0.0, 0.0, 0.0, 105.0]], 'homogeneous_poisson': 0.24, 'poisson_ratio': 0.24, 'universal_anisotropy': 0.87, 'elastic_tensor_original': [[199.31621056208374, 57.22563756034221, 50.08116990952567, 0.0, 0.0, 0.0], [57.22563756034221, 199.31621056208374, 50.08116990952566, 0.0, 0.0, 0.0], [65.23472785718226, 65.23472785718226, 111.02202374855435, 0.0, 0.0, 0.0], [0.0, 0.0, 0.0, 44.8775134793393, 0.0, 0.0], [0.0, 0.0, 0.0, 0.0, 44.8775134793393, 0.0], [1.0474432537533143, -1.047443253753316, 0.0, 0.0, 0.0, 104.73820223581355]], 'compliance_tensor': [[6.1, -1.0, -2.6, 0.0, 0.0, 0.0], [-1.0, 6.1, -2.6, 0.0, 0.0, 0.0], [-2.6, -2.6, 11.8, 0.0, 0.0, 0.0], [0.0, 0.0, 0.0, 22.3, 0.0, 0.0], [0.0, 0.0, 0.0, 0.0, 22.3, 0.0], [0.0, 0.0, 0.0, 0.0, 0.0, 9.5]], 'warnings': ['Contains a rare earth element'], 'nsites': 6}",0.0,57.0,92.0,0.87,0.24,141.35999999999999
46,mp-12956,Yb(FeP3)4,"{'Yb': 1.0, 'Fe': 4.0, 'P': 12.0}",0.10222130167586677,5.414620990655354,"{'G_Reuss': 108.0, 'G_VRH': 108.0, 'G_Voigt': 108.0, 'G_Voigt_Reuss_Hill': 108.0, 'K_Reuss': 150.0, 'K_VRH': 150.0, 'K_Voigt': 150.0, 'K_Voigt_Reuss_Hill': 150.0, 'elastic_anisotropy': 0.0, 'elastic_tensor': [[299.0, 76.0, 76.0, 0.0, 0.0, 0.0], [76.0, 299.0, 76.0, 0.0, 0.0, 0.0], [76.0, 76.0, 299.0, 0.0, 0.0, 0.0], [0.0, 0.0, 0.0, 106.0, 0.0, 0.0], [0.0, 0.0, 0.0, 0.0, 106.0, 0.0], [0.0, 0.0, 0.0, 0.0, 0.0, 106.0]], 'homogeneous_poisson': 0.21, 'poisson_ratio': 0.21, 'universal_anisotropy': 0.0, 'elastic_tensor_original': [[299.4527573109938, 75.8433986426768, 75.69652475046455, 0.0007851870176562765, 0.001692686693609485, 0.0035474062384157857], [76.94741704846471, 299.826348763906, 76.90837126906378, 0.0, 0.0, 0.0], [75.01055103805771, 74.88778903208815, 298.959538045606, 0.0, 0.0, 0.0], [1.3226678271462504e-05, 1.3960012247393483e-05, 2.2256686192150086e-05, 106.24033189810261, 0.0, 0.0], [0.0002530568886741572, 0.00023529687309263082, 0.0002609968956394344, 0.0, 106.34326345840459, 0.0], [-0.07718613438215376, -0.08424115390486486, -0.0767910107021771, 0.0, 0.0, 106.24108242876109]], 'compliance_tensor': [[3.7, -0.8, -0.8, 0.0, -0.0, -0.0], [-0.8, 3.7, -0.8, -0.0, 0.0, 0.0], [-0.8, -0.8, 3.7, -0.0, -0.0, -0.0], [0.0, -0.0, -0.0, 9.4, -0.0, 0.0], [-0.0, 0.0, -0.0, -0.0, 9.4, -0.0], [-0.0, 0.0, -0.0, 0.0, -0.0, 9.4]], 'warnings': ['Contains a rare earth element'], 'nsites': 17}",0.0,108.0,150.0,0.0,0.21,261.36
47,mp-1522,FeS2,"{'Fe': 1.0, 'S': 2.0}",0.20398386201178567,4.89365155220211,"{'G_Reuss': 121.0, 'G_VRH': 125.0, 'G_Voigt': 128.0, 'G_Voigt_Reuss_Hill': 125.0, 'K_Reuss': 150.0, 'K_VRH': 150.0, 'K_Voigt': 150.0, 'K_Voigt_Reuss_Hill': 150.0, 'elastic_anisotropy': 0.3, 'elastic_tensor': [[283.0, 36.0, 107.0, 0.0, 0.0, 0.0], [36.0, 394.0, 44.0, 0.0, 0.0, 0.0], [107.0, 44.0, 300.0, 0.0, 0.0, 0.0], [0.0, 0.0, 0.0, 96.0, 0.0, 0.0], [0.0, 0.0, 0.0, 0.0, 144.0, 0.0], [0.0, 0.0, 0.0, 0.0, 0.0, 139.0]], 'homogeneous_poisson': 0.17, 'poisson_ratio': 0.17, 'universal_anisotropy': 0.3, 'elastic_tensor_original': [[299.6487599835139, 106.5181955142057, 43.38909665996912, 0.0, 0.0, 0.0], [106.76985302960615, 283.0263666293769, 36.14424149510198, 0.0, 0.0, 0.0], [44.83865143558366, 36.2963232697025, 394.1689358195353, 0.0, 0.0, 0.0], [1.6249618612365363e-05, 0.00014678290610851312, -3.611361555334789e-05, 139.45896889991005, 0.0, 0.0], [-4.426657944047617e-06, -2.8706925083433033e-05, 2.6003114761310276e-05, 0.0, 95.97260008679669, 0.0], [0.00012634025273356057, 4.185023581758082e-05, 0.00010917684475444826, 0.0, 0.0, 143.6192180607897]], 'compliance_tensor': [[4.1, -0.2, -1.4, 0.0, 0.0, -0.0], [-0.2, 2.6, -0.3, 0.0, 0.0, -0.0], [-1.4, -0.3, 3.9, 0.0, 0.0, 0.0], [0.0, 0.0, 0.0, 10.4, 0.0, 0.0], [0.0, 0.0, 0.0, 0.0, 7.0, 0.0], [-0.0, -0.0, 0.0, 0.0, 0.0, 7.2]], 'warnings': [], 'nsites': 6}",0.0,125.0,150.0,0.3,0.17,292.5
48,mp-1918,FeRh,"{'Fe': 1.0, 'Rh': 1.0}",0.15727479443423822,9.58102488245125,"{'G_Reuss': 74.0, 'G_VRH': 79.0, 'G_Voigt': 85.0, 'G_Voigt_Reuss_Hill': 79.0, 'K_Reuss': 197.0, 'K_VRH': 197.0, 'K_Voigt': 197.0, 'K_Voigt_Reuss_Hill': 197.0, 'elastic_anisotropy': 0.8, 'elastic_tensor': [[262.0, 164.0, 164.0, 0.0, 0.0, 0.0], [164.0, 262.0, 164.0, 0.0, 0.0, 0.0], [164.0, 164.0, 262.0, 0.0, 0.0, 0.0], [0.0, 0.0, 0.0, 109.0, 0.0, 0.0], [0.0, 0.0, 0.0, 0.0, 109.0, 0.0], [0.0, 0.0, 0.0, 0.0, 0.0, 109.0]], 'homogeneous_poisson': 0.32, 'poisson_ratio': 0.32, 'universal_anisotropy': 0.8, 'elastic_tensor_original': [[262.4952765207066, 163.8490144661165, 163.8490144661165, 0.0, 0.0, 0.0], [163.8527855507292, 262.49929721353635, 163.8527855507292, 0.0, 0.0, 0.0], [163.82831818820574, 163.82831818820574, 262.4713035068579, 0.0, 0.0, 0.0], [0.0005799992211858567, 0.000875063426090627, 0.0006921556731307762, 109.20906146268551, 0.0, 0.0], [-0.00017390617563905716, -0.0004172667276254048, -0.00060495022393963, 0.0, 109.20868022178311, 0.0], [9.33381178147971e-05, -8.928768977228921e-05, -0.0005479061937380337, 0.0, 0.0, 109.20929003627745]], 'compliance_tensor': [[7.3, -2.8, -2.8, -0.0, 0.0, -0.0], [-2.8, 7.3, -2.8, -0.0, -0.0, 0.0], [-2.8, -2.8, 7.3, 0.0, -0.0, -0.0], [-0.0, -0.0, 0.0, 9.2, -0.0, -0.0], [0.0, -0.0, -0.0, -0.0, 9.2, -0.0], [-0.0, 0.0, -0.0, -0.0, -0.0, 9.2]], 'warnings': [], 'nsites': 2}",0.0,79.0,197.0,0.8,0.32,208.56
49,mp-20856,Eu(FeP3)4,"{'Eu': 1.0, 'Fe': 4.0, 'P': 12.0}",0.10895342920113565,5.207254611855857,"{'G_Reuss': 112.0, 'G_VRH': 112.0, 'G_Voigt': 113.0, 'G_Voigt_Reuss_Hill': 112.0, 'K_Reuss': 151.0, 'K_VRH': 151.0, 'K_Voigt': 151.0, 'K_Voigt_Reuss_Hill': 151.0, 'elastic_anisotropy': 0.01, 'elastic_tensor': [[308.0, 72.0, 72.0, 0.0, 0.0, 0.0], [72.0, 308.0, 72.0, 0.0, 0.0, 0.0], [72.0, 72.0, 308.0, 0.0, 0.0, 0.0], [0.0, 0.0, 0.0, 109.0, 0.0, 0.0], [0.0, 0.0, 0.0, 0.0, 109.0, 0.0], [0.0, 0.0, 0.0, 0.0, 0.0, 109.0]], 'homogeneous_poisson': 0.2, 'poisson_ratio': 0.2, 'universal_anisotropy': 0.01, 'elastic_tensor_original': [[308.41992368590417, 72.62069985198885, 72.48630954912211, 0.0022452739710278344, 0.0029776767901756986, -0.00011390295946429284], [72.30820786158272, 308.5829795981411, 72.39783431873632, -0.011433475522513253, -0.01007525832325746, 0.0008298638341126394], [72.66448670446171, 72.52181835572166, 308.31643668489954, 0.0014651784983987343, 0.0020308796266517554, 0.00033834952458509037], [0.03876051784480812, 0.03775227000129912, 0.0386072526999367, 108.92234524222765, -6.648329488983116e-05, 0.07135957445903157], [-0.05310318178097893, -0.05420981142424397, -0.05309923504710001, 3.000020652952472e-08, 108.86095140718629, -2.790665545013979e-05], [-0.01085952591670618, -0.009478482729141537, -0.011422730785549777, -5.576997810847756e-05, -2.791332274389257e-05, 108.91529064505198]], 'compliance_tensor': [[3.6, -0.7, -0.7, -0.0, -0.0, 0.0], [-0.7, 3.6, -0.7, 0.0, 0.0, 0.0], [-0.7, -0.7, 3.6, 0.0, -0.0, -0.0], [-0.0, 0.0, 0.0, 9.2, 0.0, -0.0], [-0.0, 0.0, -0.0, 0.0, 9.2, 0.0], [0.0, 0.0, -0.0, -0.0, 0.0, 9.2]], 'warnings': ['Contains a rare earth element'], 'nsites': 17}",0.0,112.0,151.0,0.01,0.2,268.8
50,mp-20892,ZrFeP,"{'Zr': 1.0, 'Fe': 1.0, 'P': 1.0}",0.14112125045217866,7.004553603311077,"{'G_Reuss': 117.0, 'G_VRH': 119.0, 'G_Voigt': 120.0, 'G_Voigt_Reuss_Hill': 119.0, 'K_Reuss': 202.0, 'K_VRH': 202.0, 'K_Voigt': 203.0, 'K_Voigt_Reuss_Hill': 202.0, 'elastic_anisotropy': 0.13, 'elastic_tensor': [[349.0, 121.0, 134.0, 0.0, 0.0, 0.0], [121.0, 317.0, 151.0, 0.0, 0.0, 0.0], [134.0, 151.0, 345.0, 0.0, 0.0, 0.0], [0.0, 0.0, 0.0, 137.0, 0.0, 0.0], [0.0, 0.0, 0.0, 0.0, 136.0, 0.0], [0.0, 0.0, 0.0, 0.0, 0.0, 127.0]], 'homogeneous_poisson': 0.25, 'poisson_ratio': 0.25, 'universal_anisotropy': 0.13, 'elastic_tensor_original': [[345.2884949416836, 137.1176968522929, 152.54816132544784, 0.0, 0.0, 0.0], [130.2209651231864, 348.90346749133863, 117.74984964618994, 0.0, 0.0, 0.0], [149.31723381729435, 124.93720963439056, 316.7137455138998, 0.0, 0.0, 0.0], [-0.43229374361568995, -0.43980151646645654, -0.41060195464076016, 127.10600244042884, 0.0, 0.0], [0.0019064709139401219, 0.001915627582661258, 0.0018828107910897202, 0.0, 136.99910019687087, 0.0], [-0.00022561666820380722, -0.00019297340477114616, -0.00026125326756433134, 0.0, 0.0, 135.61507428939035]], 'compliance_tensor': [[3.6, -0.9, -1.0, 0.0, -0.0, 0.0], [-0.9, 4.2, -1.5, 0.0, 0.0, 0.0], [-1.0, -1.5, 3.9, 0.0, 0.0, 0.0], [0.0, 0.0, 0.0, 7.3, 0.0, 0.0], [-0.0, 0.0, 0.0, 0.0, 7.4, 0.0], [0.0, 0.0, 0.0, 0.0, 0.0, 7.9]], 'warnings': [], 'nsites': 12}",0.0,119.0,202.0,0.13,0.25,297.5
51,mp-22300,FeCo2Ge,"{'Fe': 1.0, 'Co': 2.0, 'Ge': 1.0}",0.17674732082160263,8.703471491062963,"{'G_Reuss': 62.0, 'G_VRH': 71.0, 'G_Voigt': 80.0, 'G_Voigt_Reuss_Hill': 71.0, 'K_Reuss': 168.0, 'K_VRH': 168.0, 'K_Voigt': 168.0, 'K_Voigt_Reuss_Hill': 168.0, 'elastic_anisotropy': 1.41, 'elastic_tensor': [[219.0, 143.0, 143.0, 0.0, 0.0, 0.0], [143.0, 219.0, 143.0, 0.0, 0.0, 0.0], [143.0, 143.0, 219.0, 0.0, 0.0, 0.0], [0.0, 0.0, 0.0, 108.0, 0.0, 0.0], [0.0, 0.0, 0.0, 0.0, 108.0, 0.0], [0.0, 0.0, 0.0, 0.0, 0.0, 108.0]], 'homogeneous_poisson': 0.32, 'poisson_ratio': 0.32, 'universal_anisotropy': 1.41, 'elastic_tensor_original': [[219.09268480544443, 142.88684730699262, 142.88684730699262, 0.0, 0.0, 0.0], [142.88684730699262, 219.09268480544443, 142.88684730699262, 0.0, 0.0, 0.0], [142.88684730699262, 142.88684730699262, 219.09268480544443, 0.0, 0.0, 0.0], [0.0, 0.0, 0.0, 107.59954837008793, 0.0, 0.0], [0.0, 0.0, 0.0, 0.0, 107.59954837008793, 0.0], [0.0, 0.0, 0.0, 0.0, 0.0, 107.59954837008793]], 'compliance_tensor': [[9.4, -3.7, -3.7, 0.0, -0.0, -0.0], [-3.7, 9.4, -3.7, -0.0, 0.0, 0.0], [-3.7, -3.7, 9.4, -0.0, -0.0, 0.0], [0.0, -0.0, -0.0, 9.3, 0.0, -0.0], [-0.0, 0.0, -0.0, 0.0, 9.3, -0.0], [-0.0, 0.0, 0.0, -0.0, -0.0, 9.3]], 'warnings': [], 'nsites': 4}",0.0,71.0,168.0,1.41,0.32,187.44