,mp_id,Formula,Composition,IPF,Density,Elastic_Tensor,E_above_Hull,G_VRH,K_VRH,Elastic_Anisotropy,poisson_ratio,Y_Modulus
120,mp-1024955,PrNiSb,"{'Pr': 1.0, 'Ni': 1.0, 'Sb': 1.0}",0.13080785501609635,7.6863977916744926,"{'G_Reuss': 34.0, 'G_VRH': 35.0, 'G_Voigt': 35.0, 'G_Voigt_Reuss_Hill': 35.0, 'K_Reuss': 79.0, 'K_VRH': 82.0, 'K_Voigt': 85.0, 'K_Voigt_Reuss_Hill': 82.0, 'elastic_anisotropy': 0.34, 'elastic_tensor': [[142.0, 84.0, 55.0, 0.0, 0.0, 0.0], [84.0, 142.0, 55.0, 0.0, 0.0, 0.0], [55.0, 55.0, 95.0, 0.0, 0.0, 0.0], [0.0, 0.0, 0.0, 43.0, 0.0, 0.0], [0.0, 0.0, 0.0, 0.0, 43.0, 0.0], [0.0, 0.0, 0.0, 0.0, 0.0, 29.0]], 'homogeneous_poisson': 0.31, 'poisson_ratio': 0.31, 'universal_anisotropy': 0.34, 'elastic_tensor_original': [[141.412315260026, 86.09578616846447, 54.89279634797781, 0.0, 0.0, 1.1400149145144718e-05], [82.87737918440735, 142.30821901529484, 53.76535004183946, 0.0, 0.0, 3.720055936562523e-05], [54.98372054361987, 54.983715343643475, 94.96291861603729, 0.0, 0.0, 1.4399934616364356e-05], [0.0, 0.0, 0.0, 43.168531213671905, 1.1299953331042805e-05, 0.0], [0.0, 0.0, 0.0, 0.0, 43.009940323011655, 0.0], [7.716764408931466e-06, 0.0, 0.0, 0.0, 0.0, 29.35965746308009]], 'compliance_tensor': [[11.7, -5.6, -3.5, 0.0, 0.0, -0.0], [-5.6, 11.7, -3.5, 0.0, 0.0, -0.0], [-3.5, -3.5, 14.6, 0.0, 0.0, 0.0], [0.0, 0.0, 0.0, 23.2, -0.0, 0.0], [0.0, 0.0, 0.0, -0.0, 23.2, 0.0], [-0.0, -0.0, 0.0, 0.0, 0.0, 34.5]], 'warnings': ['Contains a rare earth element'], 'nsites': 6}",0.0,35.0,82.0,0.34,0.31,91.7
121,mp-1025393,TmSi2Ni,"{'Tm': 1.0, 'Si': 2.0, 'Ni': 1.0}",0.13396914726690834,7.413446121559555,"{'G_Reuss': 62.0, 'G_VRH': 64.0, 'G_Voigt': 66.0, 'G_Voigt_Reuss_Hill': 64.0, 'K_Reuss': 120.0, 'K_VRH': 121.0, 'K_Voigt': 121.0, 'K_Voigt_Reuss_Hill': 121.0, 'elastic_anisotropy': 0.31, 'elastic_tensor': [[185.0, 93.0, 73.0, 0.0, 0.0, 0.0], [93.0, 180.0, 95.0, 0.0, 0.0, 0.0], [73.0, 95.0, 199.0, 0.0, 0.0, 0.0], [0.0, 0.0, 0.0, 75.0, 0.0, 0.0], [0.0, 0.0, 0.0, 0.0, 69.0, 0.0], [0.0, 0.0, 0.0, 0.0, 0.0, 84.0]], 'homogeneous_poisson': 0.28, 'poisson_ratio': 0.28, 'universal_anisotropy': 0.31, 'elastic_tensor_original': [[185.11478755880947, 89.41942163401625, 57.37418548271132, 5.400004036080204e-06, 0.0, 0.0], [97.53432801869684, 179.98164069770962, 81.71863798551831, 1.0799950993086418e-05, 0.0, 0.0], [87.63634088340025, 108.85282526370644, 198.5392316114055, 1.3199884516280903e-05, 0.0, 0.0], [0.0, 0.0, 9.154603918405008e-06, 74.76333934387495, 0.0, 0.0], [0.0, 0.0, 0.0, 0.0, 68.57063675906979, 0.5680416115026072], [0.0, 0.0, 0.0, 0.0, 5.100009038117236e-06, 83.50617479532839]], 'compliance_tensor': [[7.5, -3.3, -1.2, -0.0, 0.0, 0.0], [-3.3, 8.9, -3.1, 0.0, 0.0, 0.0], [-1.2, -3.1, 6.9, 0.0, 0.0, 0.0], [-0.0, 0.0, 0.0, 13.4, 0.0, 0.0], [0.0, 0.0, 0.0, 0.0, 14.6, 0.0], [0.0, 0.0, 0.0, 0.0, 0.0, 12.0]], 'warnings': ['Contains a rare earth element'], 'nsites': 8}",0.0,64.0,121.0,0.31,0.28,163.84
122,mp-1025504,TmGa2Ni,"{'Tm': 1.0, 'Ga': 2.0, 'Ni': 1.0}",0.16004209317643203,8.970673469938305,"{'G_Reuss': 52.0, 'G_VRH': 55.0, 'G_Voigt': 58.0, 'G_Voigt_Reuss_Hill': 55.0, 'K_Reuss': 98.0, 'K_VRH': 99.0, 'K_Voigt': 100.0, 'K_Voigt_Reuss_Hill': 99.0, 'elastic_anisotropy': 0.67, 'elastic_tensor': [[152.0, 51.0, 92.0, 0.0, 0.0, 0.0], [51.0, 160.0, 65.0, 0.0, 0.0, 0.0], [92.0, 65.0, 169.0, 0.0, 0.0, 0.0], [0.0, 0.0, 0.0, 44.0, 0.0, 0.0], [0.0, 0.0, 0.0, 0.0, 94.0, 0.0], [0.0, 0.0, 0.0, 0.0, 0.0, 64.0]], 'homogeneous_poisson': 0.27, 'poisson_ratio': 0.27, 'universal_anisotropy': 0.67, 'elastic_tensor_original': [[151.59387599397232, 57.66091456886147, 97.6481758936269, -5.800070047244402e-06, 0.0, 0.0], [44.85490254383993, 159.6361891049975, 64.5923158363671, -1.6000270510153634e-05, 0.0, 0.0], [87.28219512505869, 65.01837644759486, 168.61391162140558, 0.0, 0.0, 0.0], [0.0, 0.0, -8.84307338587192e-08, 43.93634344236677, 0.0, 0.0], [0.0, 0.0, 0.0, 0.0, 93.81435500102748, 5.000023189577196e-07], [0.0, 0.0, 0.0, 0.0, -6.400060064503416e-06, 63.627192833358336]], 'compliance_tensor': [[10.1, -1.2, -5.1, 0.0, 0.0, 0.0], [-1.2, 7.6, -2.3, -0.0, 0.0, 0.0], [-5.1, -2.3, 9.6, -0.0, 0.0, 0.0], [0.0, -0.0, -0.0, 22.8, 0.0, 0.0], [0.0, 0.0, 0.0, 0.0, 10.7, -0.0], [0.0, 0.0, 0.0, 0.0, -0.0, 15.7]], 'warnings': ['Contains a rare earth element'], 'nsites': 8}",0.0,55.0,99.0,0.67,0.27,139.7
123,mp-11520,YNiSb,"{'Y': 1.0, 'Ni': 1.0, 'Sb': 1.0}",0.13666532273503162,6.942946551527035,"{'G_Reuss': 54.0, 'G_VRH': 55.0, 'G_Voigt': 56.0, 'G_Voigt_Reuss_Hill': 55.0, 'K_Reuss': 94.0, 'K_VRH': 94.0, 'K_Voigt': 94.0, 'K_Voigt_Reuss_Hill': 94.0, 'elastic_anisotropy': 0.18, 'elastic_tensor': [[187.0, 48.0, 48.0, 0.0, 0.0, 0.0], [48.0, 187.0, 48.0, 0.0, 0.0, 0.0], [48.0, 48.0, 187.0, 0.0, 0.0, 0.0], [0.0, 0.0, 0.0, 47.0, 0.0, 0.0], [0.0, 0.0, 0.0, 0.0, 47.0, 0.0], [0.0, 0.0, 0.0, 0.0, 0.0, 47.0]], 'homogeneous_poisson': 0.25, 'poisson_ratio': 0.25, 'universal_anisotropy': 0.18, 'elastic_tensor_original': [[185.44023304827493, 46.21260156788402, 46.21171295233442, 0.00041325620434216756, 0.00040790970843274424, 0.0004078299099863351], [46.39437542672191, 185.6223874191105, 46.39437542672191, 0.0, 0.0, 0.0], [50.13259704834196, 50.13259704834196, 189.37426687027082, 0.0, 0.0, 0.0], [0.0017513003525769747, 0.0017441003004367932, 0.0017457535608196022, 47.179297418290275, 0.0, 0.0], [-0.0014308868188799221, -0.0013520901587805963, -0.0014414935526350914, 0.0, 47.17927832824958, 0.0], [-0.0022139101722970463, -0.0022164001550835683, -0.00218158677768091, 0.0, 0.0, 47.179752885930434]], 'compliance_tensor': [[6.0, -1.2, -1.2, 0.0, 0.0, 0.0], [-1.2, 6.0, -1.2, 0.0, 0.0, 0.0], [-1.2, -1.2, 6.0, 0.0, 0.0, 0.0], [0.0, 0.0, 0.0, 21.2, 0.0, 0.0], [0.0, 0.0, 0.0, 0.0, 21.2, 0.0], [0.0, 0.0, 0.0, 0.0, 0.0, 21.2]], 'warnings': [], 'nsites': 3}",0.0,55.0,94.0,0.18,0.25,137.5
124,mp-12382,ErSi2Ni,"{'Er': 1.0, 'Si': 2.0, 'Ni': 1.0}",0.11805766873829864,7.2832459348474465,"{'G_Reuss': 63.0, 'G_VRH': 65.0, 'G_Voigt': 67.0, 'G_Voigt_Reuss_Hill': 65.0, 'K_Reuss': 119.0, 'K_VRH': 119.0, 'K_Voigt': 120.0, 'K_Voigt_Reuss_Hill': 119.0, 'elastic_anisotropy': 0.33, 'elastic_tensor': [[205.0, 102.0, 68.0, 0.0, 0.0, 0.0], [102.0, 184.0, 86.0, 0.0, 0.0, 0.0], [68.0, 86.0, 179.0, 0.0, 0.0, 0.0], [0.0, 0.0, 0.0, 76.0, 0.0, 0.0], [0.0, 0.0, 0.0, 0.0, 68.0, 0.0], [0.0, 0.0, 0.0, 0.0, 0.0, 86.0]], 'homogeneous_poisson': 0.27, 'poisson_ratio': 0.27, 'universal_anisotropy': 0.33, 'elastic_tensor_original': [[204.95401380228552, 111.27696727501863, 69.2244825161149, -1.3599697674076683e-05, 0.0, 0.0], [93.11295073741981, 184.07810268671346, 75.88025321357125, -2.2199743543371457e-05, 0.0, 0.0], [65.97928763971183, 95.9839169577864, 179.31783332857756, -5.800011273110105e-06, 0.0, 0.0], [0.0, 0.0, -9.257468683100444e-06, 76.2233573626482, 0.0, 0.0], [0.0, 0.0, 0.0, 0.0, 68.40570191918259, 0.0], [0.0, 0.0, 0.0, 0.0, -1.040001987448892e-05, 85.98212651319363]], 'compliance_tensor': [[6.9, -3.4, -1.0, 0.0, 0.0, 0.0], [-3.4, 8.6, -2.9, -0.0, 0.0, 0.0], [-1.0, -2.9, 7.3, -0.0, 0.0, 0.0], [0.0, -0.0, -0.0, 13.1, 0.0, 0.0], [0.0, 0.0, 0.0, 0.0, 14.6, -0.0], [0.0, 0.0, 0.0, 0.0, -0.0, 11.6]], 'warnings': ['Contains a rare earth element'], 'nsites': 8}",0.0,65.0,119.0,0.33,0.27,165.1
125,mp-12520,SrNi2Ge,"{'Sr': 1.0, 'Ni': 2.0, 'Ge': 1.0}",0.19259836923205145,5.943042818638339,"{'G_Reuss': 26.0, 'G_VRH': 32.0, 'G_Voigt': 37.0, 'G_Voigt_Reuss_Hill': 32.0, 'K_Reuss': 68.0, 'K_VRH': 72.0, 'K_Voigt': 75.0, 'K_Voigt_Reuss_Hill': 72.0, 'elastic_anisotropy': 2.27, 'elastic_tensor': [[167.0, 72.0, 23.0, 0.0, 0.0, 0.0], [72.0, 167.0, 23.0, 0.0, 0.0, 0.0], [23.0, 23.0, 108.0, 0.0, 0.0, 0.0], [0.0, 0.0, 0.0, 15.0, 0.0, 0.0], [0.0, 0.0, 0.0, 0.0, 15.0, 0.0], [0.0, 0.0, 0.0, 0.0, 0.0, 48.0]], 'homogeneous_poisson': 0.31, 'poisson_ratio': 0.31, 'universal_anisotropy': 2.27, 'elastic_tensor_original': [[166.83577824962148, 72.92449374849461, 22.725815505599865, 0.0, 0.0, 0.0], [71.31779987819252, 166.4090180073626, 22.754759889335297, 0.0, 0.0, 0.0], [22.648751224299104, 22.64875568291546, 108.37639750745952, 0.0, 0.0, 0.0], [0.35586607720680496, 0.3561337104499564, 0.3908813846250784, 15.155991375843715, 0.0, 0.0], [0.0026607734936588516, 0.0027047536615997796, 0.003336946075665359, 0.0, 15.197749473530429, 0.0], [0.003970616393921525, 0.0039845629170617985, 0.003922673558818115, 0.0, 0.0, 48.43535984692056]], 'compliance_tensor': [[7.4, -3.0, -0.9, 0.0, 0.0, -0.0], [-3.0, 7.4, -0.9, -0.0, -0.0, -0.0], [-0.9, -0.9, 9.6, 0.0, 0.0, 0.0], [0.0, -0.0, 0.0, 65.9, -0.0, -0.0], [0.0, -0.0, 0.0, -0.0, 65.9, -0.0], [-0.0, -0.0, 0.0, -0.0, -0.0, 20.9]], 'warnings': [], 'nsites': 8}",0.0,32.0,72.0,2.27,0.31,83.84
126,mp-13416,Sc2InNi2,"{'Sc': 2.0, 'In': 1.0, 'Ni': 2.0}",0.14716298836273328,6.207417883719199,"{'G_Reuss': 43.0, 'G_VRH': 44.0, 'G_Voigt': 44.0, 'G_Voigt_Reuss_Hill': 44.0, 'K_Reuss': 100.0, 'K_VRH': 101.0, 'K_Voigt': 102.0, 'K_Voigt_Reuss_Hill': 101.0, 'elastic_anisotropy': 0.11, 'elastic_tensor': [[129.0, 74.0, 74.0, 0.0, 0.0, 0.0], [74.0, 167.0, 80.0, 0.0, 0.0, 0.0], [74.0, 80.0, 167.0, 0.0, 0.0, 0.0], [0.0, 0.0, 0.0, 47.0, 0.0, 0.0], [0.0, 0.0, 0.0, 0.0, 47.0, 0.0], [0.0, 0.0, 0.0, 0.0, 0.0, 47.0]], 'homogeneous_poisson': 0.31, 'poisson_ratio': 0.31, 'universal_anisotropy': 0.11, 'elastic_tensor_original': [[167.0293470344597, 79.59858974320801, 77.93705648208214, 0.0, 0.0, 0.0], [79.66368687671546, 167.09553849201686, 78.0038796533356, 0.0, 0.0, 0.0], [69.92892957815282, 69.92892957815282, 129.33249878355173, 0.0, 0.0, 0.0], [-0.0008389036003879272, -0.0007761369137405807, -0.0007739002463619546, 47.28218211504068, 0.0, 0.0], [0.00010645670055556961, 0.00010295336610677405, 0.0001084433678549092, 0.0, 47.28220098171336, 0.0], [-0.00127271718532166, -0.0012834438563596852, -0.001397683902914719, 0.0, 0.0, 46.87607719618488]], 'compliance_tensor': [[11.8, -3.5, -3.5, 0.0, -0.0, -0.0], [-3.5, 8.8, -2.6, 0.0, 0.0, 0.0], [-3.5, -2.6, 8.8, 0.0, 0.0, 0.0], [0.0, 0.0, 0.0, 21.3, 0.0, 0.0], [-0.0, 0.0, 0.0, 0.0, 21.1, 0.0], [-0.0, 0.0, 0.0, 0.0, 0.0, 21.1]], 'warnings': [], 'nsites': 10}",0.0,44.0,101.0,0.11,0.31,115.28
127,mp-13536,TbZnNi,"{'Tb': 1.0, 'Zn': 1.0, 'Ni': 1.0}",0.15750494357349432,8.69588391970023,"{'G_Reuss': 32.0, 'G_VRH': 33.0, 'G_Voigt': 34.0, 'G_Voigt_Reuss_Hill': 33.0, 'K_Reuss': 74.0, 'K_VRH': 74.0, 'K_Voigt': 74.0, 'K_Voigt_Reuss_Hill': 74.0, 'elastic_anisotropy': 0.26, 'elastic_tensor': [[112.0, 46.0, 61.0, 0.0, 0.0, 0.0], [46.0, 112.0, 61.0, 0.0, 0.0, 0.0], [61.0, 61.0, 108.0, 0.0, 0.0, 0.0], [0.0, 0.0, 0.0, 40.0, 0.0, 0.0], [0.0, 0.0, 0.0, 0.0, 40.0, 0.0], [0.0, 0.0, 0.0, 0.0, 0.0, 33.0]], 'homogeneous_poisson': 0.31, 'poisson_ratio': 0.31, 'universal_anisotropy': 0.26, 'elastic_tensor_original': [[108.27906561489932, 43.043155541853, 62.02616254363472, 0.0, 0.0, -3.6000362605011556e-06], [49.92251965143749, 115.31664757720671, 69.18081561288012, 0.0, 0.0, -9.400136749163993e-06], [55.74409968647709, 55.744102886482835, 107.6386712612683, 0.0, 0.0, -4.600008259145342e-06], [0.0, 0.0, 0.0, 40.019986446619825, -3.2999794379576474e-06, 0.0], [0.0, 0.0, 0.0, 0.0, 40.587242583069276, 0.0], [0.0, 0.0, 0.0, 0.0, 0.0, 32.767143728370066]], 'compliance_tensor': [[13.2, -2.1, -6.3, 0.0, 0.0, -0.0], [-2.1, 13.2, -6.3, 0.0, 0.0, -0.0], [-6.3, -6.3, 16.4, 0.0, 0.0, 0.0], [0.0, 0.0, 0.0, 24.8, -0.0, 0.0], [0.0, 0.0, 0.0, -0.0, 24.8, 0.0], [-0.0, -0.0, 0.0, 0.0, 0.0, 30.6]], 'warnings': ['Contains a rare earth element'], 'nsites': 9}",0.0,33.0,74.0,0.26,0.31,86.46000000000001
128,mp-13915,LiNi2Sn,"{'Li': 1.0, 'Ni': 2.0, 'Sn': 1.0}",0.16435214980385882,7.500204736833287,"{'G_Reuss': 11.0, 'G_VRH': 28.0, 'G_Voigt': 45.0, 'G_Voigt_Reuss_Hill': 28.0, 'K_Reuss': 108.0, 'K_VRH': 108.0, 'K_Voigt': 108.0, 'K_Voigt_Reuss_Hill': 108.0, 'elastic_anisotropy': 14.53, 'elastic_tensor': [[115.0, 105.0, 105.0, 0.0, 0.0, 0.0], [105.0, 115.0, 105.0, 0.0, 0.0, 0.0], [105.0, 105.0, 115.0, 0.0, 0.0, 0.0], [0.0, 0.0, 0.0, 71.0, 0.0, 0.0], [0.0, 0.0, 0.0, 0.0, 71.0, 0.0], [0.0, 0.0, 0.0, 0.0, 0.0, 71.0]], 'homogeneous_poisson': 0.38, 'poisson_ratio': 0.38, 'universal_anisotropy': 14.53, 'elastic_tensor_original': [[115.03738112772228, 104.93569857899871, 104.9323168969602, 0.00010149216477096611, -2.045081155005639e-06, -0.0003196341546382343], [105.20526064987713, 115.41494459901183, 105.20526064987713, 0.0, 0.0, 0.0], [104.7497295027087, 104.74887357609586, 114.8457789501684, 0.00016609266949085016, 0.00011031408347883357, -0.00019696938496838626], [0.004060762493695021, 0.0032713253422383052, 0.0030870285623953533, 71.13624078440972, 0.0, 0.0], [0.00034237354358359435, 0.0001689267704041312, 1.8136677803995382e-05, 0.0, 71.13541977390554, 0.0], [-0.0015487109510545704, -0.0017601510809004076, -0.0010747339933213976, 0.0, 0.0, 71.13522016711629]], 'compliance_tensor': [[66.8, -31.9, -31.9, -0.0, 0.0, -0.0], [-31.9, 66.8, -31.9, -0.0, -0.0, 0.0], [-31.9, -31.9, 66.8, 0.0, -0.0, -0.0], [-0.0, -0.0, 0.0, 14.1, -0.0, -0.0], [0.0, -0.0, -0.0, -0.0, 14.1, -0.0], [-0.0, 0.0, -0.0, -0.0, -0.0, 14.1]], 'warnings': [], 'nsites': 4}",0.0,28.0,108.0,14.53,0.38,77.28
129,mp-16356,TiNiGe,"{'Ti': 1.0, 'Ni': 1.0, 'Ge': 1.0}",0.14756095541362443,7.085254895184842,"{'G_Reuss': 82.0, 'G_VRH': 83.0, 'G_Voigt': 85.0, 'G_Voigt_Reuss_Hill': 83.0, 'K_Reuss': 157.0, 'K_VRH': 157.0, 'K_Voigt': 158.0, 'K_Voigt_Reuss_Hill': 157.0, 'elastic_anisotropy': 0.18, 'elastic_tensor': [[242.0, 96.0, 112.0, 0.0, 0.0, 0.0], [96.0, 287.0, 120.0, 0.0, 0.0, 0.0], [112.0, 120.0, 236.0, 0.0, 0.0, 0.0], [0.0, 0.0, 0.0, 85.0, 0.0, 0.0], [0.0, 0.0, 0.0, 0.0, 108.0, 0.0], [0.0, 0.0, 0.0, 0.0, 0.0, 86.0]], 'homogeneous_poisson': 0.27, 'poisson_ratio': 0.27, 'universal_anisotropy': 0.18, 'elastic_tensor_original': [[236.46923663403862, 108.74947583728613, 116.0654166675622, 0.0, 0.0, 0.0], [115.13558672893275, 242.13878987626768, 93.58768906188332, 0.0, 0.0, 0.0], [123.55669257031157, 97.54371367421487, 287.411203728755, 0.0, 0.0, 0.0], [0.0005804908392972619, 0.0007367674611356501, 0.00031395735925868006, 85.53297477488096, 0.0, 0.0], [-0.0011021695035329858, -0.0009528195247827082, -0.0008794363054839294, 0.0, 84.58996305744155, 0.0], [0.4175981875908071, 0.4421534893051313, 0.431461873642353, 0.0, 0.0, 107.5799743651704]], 'compliance_tensor': [[5.5, -0.9, -2.1, 0.0, -0.0, 0.0], [-0.9, 4.6, -1.9, 0.0, -0.0, 0.0], [-2.1, -1.9, 6.2, 0.0, 0.0, 0.0], [0.0, 0.0, 0.0, 11.8, 0.0, 0.0], [-0.0, -0.0, 0.0, 0.0, 9.3, 0.0], [0.0, 0.0, 0.0, 0.0, 0.0, 11.7]], 'warnings': [], 'nsites': 12}",0.0,83.0,157.0,0.18,0.27,210.82
130,mp-16503,HoAl2Ni,"{'Ho': 1.0, 'Al': 2.0, 'Ni': 1.0}",0.12761028659865248,6.5361773805084775,"{'G_Reuss': 53.0, 'G_VRH': 56.0, 'G_Voigt': 59.0, 'G_Voigt_Reuss_Hill': 56.0, 'K_Reuss': 92.0, 'K_VRH': 94.0, 'K_Voigt': 96.0, 'K_Voigt_Reuss_Hill': 94.0, 'elastic_anisotropy': 0.59, 'elastic_tensor': [[164.0, 53.0, 87.0, 0.0, 0.0, 0.0], [53.0, 126.0, 64.0, 0.0, 0.0, 0.0], [87.0, 64.0, 168.0, 0.0, 0.0, 0.0], [0.0, 0.0, 0.0, 52.0, 0.0, 0.0], [0.0, 0.0, 0.0, 0.0, 95.0, 0.0], [0.0, 0.0, 0.0, 0.0, 0.0, 62.0]], 'homogeneous_poisson': 0.25, 'poisson_ratio': 0.25, 'universal_anisotropy': 0.59, 'elastic_tensor_original': [[164.4737630806972, 46.97065653561733, 83.37129141346878, 0.0, 0.0, 0.0], [59.041354262597125, 125.75076123222914, 67.21779143636005, 0.0, 0.0, 0.0], [90.97972212263858, 59.890412044632676, 168.29515145602997, 0.0, 0.0, 0.0], [0.0, 0.0, 0.0, 52.33770629011087, 0.0, 0.0], [0.0, 0.0, 0.0, 0.0, 94.58093107330515, 0.0], [0.0, 0.0, 0.0, 0.0, 0.0, 61.57788486384152]], 'compliance_tensor': [[8.7, -1.7, -3.8, 0.0, 0.0, 0.0], [-1.7, 10.2, -3.0, -0.0, 0.0, 0.0], [-3.8, -3.0, 9.0, -0.0, 0.0, 0.0], [0.0, -0.0, -0.0, 19.1, 0.0, 0.0], [0.0, 0.0, 0.0, 0.0, 10.6, -0.0], [0.0, 0.0, 0.0, 0.0, -0.0, 16.2]], 'warnings': ['Contains a rare earth element'], 'nsites': 8}",0.0,56.0,94.0,0.59,0.25,140.0
131,mp-16517,TmAl2Ni,"{'Tm': 1.0, 'Al': 2.0, 'Ni': 1.0}",0.14118819391137682,6.7548522465859735,"{'G_Reuss': 57.0, 'G_VRH': 60.0, 'G_Voigt': 63.0, 'G_Voigt_Reuss_Hill': 60.0, 'K_Reuss': 92.0, 'K_VRH': 93.0, 'K_Voigt': 94.0, 'K_Voigt_Reuss_Hill': 93.0, 'elastic_anisotropy': 0.48, 'elastic_tensor': [[151.0, 49.0, 78.0, 0.0, 0.0, 0.0], [49.0, 143.0, 62.0, 0.0, 0.0, 0.0], [78.0, 62.0, 174.0, 0.0, 0.0, 0.0], [0.0, 0.0, 0.0, 55.0, 0.0, 0.0], [0.0, 0.0, 0.0, 0.0, 99.0, 0.0], [0.0, 0.0, 0.0, 0.0, 0.0, 66.0]], 'homogeneous_poisson': 0.23, 'poisson_ratio': 0.23, 'universal_anisotropy': 0.48, 'elastic_tensor_original': [[150.71483868651015, 43.272783035205535, 74.21590267849962, -8.600084114265651e-06, 0.0, 0.0], [55.33966286445699, 143.11097135886234, 63.272234977082256, -2.8399626637808802e-05, 0.0, 0.0], [80.83459027477963, 60.05591147461797, 174.49221382369632, -6.000076117497637e-06, 0.0, 0.0], [0.0, 0.0, -1.0959411076228465e-05, 54.80935136124349, 0.0, 0.0], [0.0, 0.0, 0.0, 0.0, 98.63166349649909, -4.999939066785964e-07], [0.0, 0.0, 0.0, 0.0, -1.3300062324069782e-05, 66.43443040904532]], 'compliance_tensor': [[8.9, -1.6, -3.4, 0.0, 0.0, 0.0], [-1.6, 8.5, -2.3, -0.0, 0.0, 0.0], [-3.4, -2.3, 8.0, -0.0, 0.0, 0.0], [0.0, -0.0, -0.0, 18.2, 0.0, 0.0], [0.0, 0.0, 0.0, 0.0, 10.1, -0.0], [0.0, 0.0, 0.0, 0.0, -0.0, 15.1]], 'warnings': ['Contains a rare earth element'], 'nsites': 8}",0.0,60.0,93.0,0.48,0.23,147.6
132,mp-19331,MnNiO3,"{'Mn': 1.0, 'Ni': 1.0, 'O': 3.0}",0.566006656608593,5.430002812192998,"{'G_Reuss': 89.0, 'G_VRH': 89.0, 'G_Voigt': 89.0, 'G_Voigt_Reuss_Hill': 89.0, 'K_Reuss': 175.0, 'K_VRH': 175.0, 'K_Voigt': 176.0, 'K_Voigt_Reuss_Hill': 175.0, 'elastic_anisotropy': 0.02, 'elastic_tensor': [[306.0, 121.0, 114.0, 0.0, 0.0, 0.0], [121.0, 306.0, 114.0, -0.0, -0.0, 0.0], [114.0, 114.0, 269.0, 0.0, 0.0, 0.0], [0.0, -0.0, 0.0, 88.0, 0.0, -0.0], [0.0, -0.0, 0.0, 0.0, 88.0, 0.0], [0.0, 0.0, 0.0, -0.0, 0.0, 93.0]], 'homogeneous_poisson': 0.28, 'poisson_ratio': 0.28, 'universal_anisotropy': 0.02, 'elastic_tensor_original': [[305.66135007410196, 119.32391371895001, 113.3777573241364, -0.16130856145971112, -0.35240055902352985, 0.17854409198694543], [121.1133223480431, 307.14618662820357, 115.69606628161476, 0.27030320121367235, 0.2621970302425765, 0.24684689055769865], [114.20740939702424, 114.20747005139927, 269.3293040552038, 0.0, 0.0, -2.130626607784713e-06], [-0.7216427525755006, 0.6136864653197114, 0.33419083567441216, 87.692685851334, 0.0034443268616599996, 0.18179129955815676], [0.02469621034101675, 0.37127534598894185, -0.6483742303265884, 0.05439353256737215, 87.71428951427539, -0.64004206161988], [-0.060473435876820025, 0.20337058266442537, -0.007598280015039099, 0.46917846436860894, -0.36133620201225675, 92.28948489655878]], 'compliance_tensor': [[4.2, -1.2, -1.3, -0.0, -0.0, 0.0], [-1.2, 4.2, -1.3, 0.0, 0.0, 0.0], [-1.3, -1.3, 4.8, 0.0, 0.0, -0.0], [-0.0, 0.0, 0.0, 11.4, 0.0, 0.0], [-0.0, 0.0, 0.0, 0.0, 11.4, -0.1], [0.0, 0.0, -0.0, 0.0, -0.1, 10.8]], 'warnings': [], 'nsites': 10}",0.0,89.0,175.0,0.02,0.28,227.84