,mp_id,Formula,Composition,IPF,Density,Elastic_Tensor,E_above_Hull,G_VRH,K_VRH,Elastic_Anisotropy,poisson_ratio,Y_Modulus
289,mp-19442,Mn(Ni3O4)2,"{'Mn': 1.0, 'Ni': 6.0, 'O': 8.0}",0.5280728266841967,5.988016226430585,"{'G_Reuss': 85.0, 'G_VRH': 85.0, 'G_Voigt': 85.0, 'G_Voigt_Reuss_Hill': 85.0, 'K_Reuss': 160.0, 'K_VRH': 160.0, 'K_Voigt': 160.0, 'K_Voigt_Reuss_Hill': 160.0, 'elastic_anisotropy': 0.0, 'elastic_tensor': [[276.0, 102.0, 102.0, 0.0, 0.0, 0.0], [102.0, 276.0, 102.0, 0.0, 0.0, 0.0], [102.0, 102.0, 276.0, 0.0, 0.0, 0.0], [0.0, 0.0, 0.0, 83.0, 0.0, 0.0], [0.0, 0.0, 0.0, 0.0, 83.0, 0.0], [0.0, 0.0, 0.0, 0.0, 0.0, 83.0]], 'homogeneous_poisson': 0.28, 'poisson_ratio': 0.28, 'universal_anisotropy': 0.0, 'elastic_tensor_original': [[275.74027220243573, 101.99503413465602, 101.99503413465602, 0.0, 0.0, 0.0], [101.99529729913019, 275.7402640427431, 101.99529729913019, 0.0, 0.0, 0.0], [101.99395785407579, 101.99395785407579, 275.7388138376715, 0.0, 0.0, 0.0], [-3.725335057715146e-05, -3.894335135859209e-05, -7.039003258116756e-05, 82.99493532220116, 0.0, 0.0], [3.413334913417675e-06, 8.046670390756634e-06, -5.440002518277705e-06, 0.0, 82.99495964221241, 0.0], [-5.133335706420641e-07, 1.975000914132472e-05, 8.95333747642921e-06, 0.0, 0.0, 82.99492469219624]], 'compliance_tensor': [[4.5, -1.2, -1.2, -0.0, 0.0, -0.0], [-1.2, 4.5, -1.2, -0.0, -0.0, 0.0], [-1.2, -1.2, 4.5, 0.0, -0.0, -0.0], [-0.0, -0.0, 0.0, 12.0, 0.0, 0.0], [0.0, -0.0, -0.0, 0.0, 12.0, 0.0], [-0.0, 0.0, -0.0, 0.0, 0.0, 12.0]], 'warnings': [], 'nsites': 15}",0.0,85.0,160.0,0.0,0.28,217.6
290,mp-2906,Ho(NiP)2,"{'Ho': 1.0, 'Ni': 2.0, 'P': 2.0}",0.1361972385725598,8.183607816701235,"{'G_Reuss': 83.0, 'G_VRH': 86.0, 'G_Voigt': 88.0, 'G_Voigt_Reuss_Hill': 86.0, 'K_Reuss': 124.0, 'K_VRH': 124.0, 'K_Voigt': 124.0, 'K_Voigt_Reuss_Hill': 124.0, 'elastic_anisotropy': 0.29, 'elastic_tensor': [[243.0, 42.0, 82.0, 0.0, 0.0, 0.0], [42.0, 243.0, 82.0, 0.0, 0.0, 0.0], [82.0, 82.0, 222.0, 0.0, 0.0, 0.0], [0.0, 0.0, 0.0, 105.0, 0.0, 0.0], [0.0, 0.0, 0.0, 0.0, 105.0, 0.0], [0.0, 0.0, 0.0, 0.0, 0.0, 62.0]], 'homogeneous_poisson': 0.22, 'poisson_ratio': 0.22, 'universal_anisotropy': 0.29, 'elastic_tensor_original': [[243.2035116648698, 42.302913168198536, 77.07321089139204, 1.6400086750949122e-05, 0.0, 0.0], [42.30291316819505, 243.2035116648698, 77.07321089139201, 0.0, -1.2799137415044886e-07, 0.0], [86.42562737347913, 86.42562737347913, 222.0473670981879, 4.7199419124217246e-05, 4.7199419124217246e-05, 0.0], [0.0, 2.2271713218479895e-05, 0.0, 105.49069354415471, -1.308665285234985e-06, 1.1135845627872699e-05], [2.2271713215501097e-05, 0.0, 0.0, 1.3086652851737904e-06, 105.49069354415471, 1.1135870869243944e-05], [0.6167002145913103, -0.6167002145911651, 0.0, 3.500017392444119e-07, 3.3889866441420294e-07, 61.66740604611965]], 'compliance_tensor': [[4.7, -0.3, -1.6, 0.0, -0.0, 0.0], [-0.3, 4.7, -1.6, -0.0, 0.0, 0.0], [-1.6, -1.6, 5.7, -0.0, -0.0, 0.0], [0.0, -0.0, -0.0, 9.5, 0.0, -0.0], [-0.0, 0.0, -0.0, 0.0, 9.5, -0.0], [0.0, 0.0, 0.0, -0.0, -0.0, 16.2]], 'warnings': ['Contains a rare earth element'], 'nsites': 5}",0.0,86.0,124.0,0.29,0.22,209.84
291,mp-29733,MgNiBi,"{'Mg': 1.0, 'Ni': 1.0, 'Bi': 1.0}",0.14549190317052985,7.832719871526786,"{'G_Reuss': 33.0, 'G_VRH': 33.0, 'G_Voigt': 33.0, 'G_Voigt_Reuss_Hill': 33.0, 'K_Reuss': 66.0, 'K_VRH': 66.0, 'K_Voigt': 66.0, 'K_Voigt_Reuss_Hill': 66.0, 'elastic_anisotropy': 0.01, 'elastic_tensor': [[113.0, 43.0, 43.0, 0.0, 0.0, 0.0], [43.0, 113.0, 43.0, 0.0, 0.0, 0.0], [43.0, 43.0, 113.0, 0.0, 0.0, 0.0], [0.0, 0.0, 0.0, 32.0, 0.0, 0.0], [0.0, 0.0, 0.0, 0.0, 32.0, 0.0], [0.0, 0.0, 0.0, 0.0, 0.0, 32.0]], 'homogeneous_poisson': 0.29, 'poisson_ratio': 0.29, 'universal_anisotropy': 0.01, 'elastic_tensor_original': [[111.50359768549319, 41.41048577838776, 41.41125596004836, -5.377508020637838e-06, -6.600187774739695e-05, 4.382781925810278e-05], [43.91145905255746, 114.02112455456474, 43.91030571150299, 0.0006954320178811939, 0.00040639850931632586, 0.0006923597401120752], [44.04071459926122, 44.04040439895584, 114.15098260016164, 0.0005225864685848095, 0.0007012374258734893, 0.0007547828384209844], [0.00018887351985214768, -4.9876715921372845e-05, -0.0004161504109612279, 31.755277855964177, 0.0, 0.0], [-0.00012620345796292734, -0.0004171870786507565, -0.0004070370686283252, 0.0, 31.75535067936944, 0.0], [-0.00018027351135870308, 0.00017270017054636893, 1.1786678306572057e-05, 0.0, 0.0, 31.75580913648884]], 'compliance_tensor': [[11.2, -3.1, -3.1, -0.0, 0.0, 0.0], [-3.1, 11.2, -3.1, -0.0, -0.0, 0.0], [-3.1, -3.1, 11.2, 0.0, -0.0, 0.0], [-0.0, -0.0, 0.0, 31.5, -0.0, 0.0], [0.0, -0.0, -0.0, -0.0, 31.5, 0.0], [0.0, 0.0, 0.0, 0.0, 0.0, 31.5]], 'warnings': [], 'nsites': 3}",0.0,33.0,66.0,0.01,0.29,85.14
292,mp-29752,NiGePt2,"{'Ni': 1.0, 'Ge': 1.0, 'Pt': 2.0}",0.13987383609968418,15.17888444694202,"{'G_Reuss': 56.0, 'G_VRH': 59.0, 'G_Voigt': 63.0, 'G_Voigt_Reuss_Hill': 59.0, 'K_Reuss': 194.0, 'K_VRH': 196.0, 'K_Voigt': 199.0, 'K_Voigt_Reuss_Hill': 196.0, 'elastic_anisotropy': 0.59, 'elastic_tensor': [[268.0, 192.0, 171.0, 0.0, 0.0, 0.0], [192.0, 288.0, 132.0, 0.0, 0.0, 0.0], [171.0, 132.0, 243.0, 0.0, 0.0, 0.0], [0.0, 0.0, 0.0, 54.0, 0.0, 0.0], [0.0, 0.0, 0.0, 0.0, 66.0, 0.0], [0.0, 0.0, 0.0, 0.0, 0.0, 92.0]], 'homogeneous_poisson': 0.36, 'poisson_ratio': 0.36, 'universal_anisotropy': 0.59, 'elastic_tensor_original': [[243.2744110532315, 170.41171854356156, 131.5485831078973, 0.0, 0.0, 0.0], [171.16880373514275, 267.7177342125154, 192.7920737333672, -0.0001398274838907041, -1.327298456203701e-05, 0.00042285082237667767], [132.92029489808417, 190.56968423319208, 287.78415039125406, -2.00498529371697e-07, 4.439037440289374e-05, -4.2064591462182036e-05], [-0.023859270560860905, 0.004026709409562601, -0.0042077092457507796, 91.56784503599559, 0.0, 0.0], [0.07825833440414075, -0.015941600768294723, 0.11276928640983878, 0.0, 54.312188498482705, 0.0], [-0.10401439539968049, 0.019128447602640566, -0.10421152849441226, 0.0, 0.0, 65.88058620672115]], 'compliance_tensor': [[9.8, -4.5, -4.4, 0.0, 0.0, 0.0], [-4.5, 6.7, -0.5, 0.0, 0.0, 0.0], [-4.4, -0.5, 7.5, 0.0, -0.0, 0.0], [0.0, 0.0, 0.0, 18.4, 0.0, 0.0], [0.0, 0.0, -0.0, 0.0, 15.2, 0.0], [0.0, 0.0, 0.0, 0.0, 0.0, 10.9]], 'warnings': [], 'nsites': 8}",0.0,59.0,196.0,0.59,0.36,160.48
293,mp-30459,ScNiBi,"{'Sc': 1.0, 'Ni': 1.0, 'Bi': 1.0}",0.1510438091993918,8.481495533321725,"{'G_Reuss': 52.0, 'G_VRH': 53.0, 'G_Voigt': 53.0, 'G_Voigt_Reuss_Hill': 53.0, 'K_Reuss': 89.0, 'K_VRH': 89.0, 'K_Voigt': 89.0, 'K_Voigt_Reuss_Hill': 89.0, 'elastic_anisotropy': 0.02, 'elastic_tensor': [[164.0, 51.0, 51.0, 0.0, 0.0, 0.0], [51.0, 164.0, 51.0, 0.0, 0.0, 0.0], [51.0, 51.0, 164.0, 0.0, 0.0, 0.0], [0.0, 0.0, 0.0, 50.0, 0.0, 0.0], [0.0, 0.0, 0.0, 0.0, 50.0, 0.0], [0.0, 0.0, 0.0, 0.0, 0.0, 50.0]], 'homogeneous_poisson': 0.25, 'poisson_ratio': 0.25, 'universal_anisotropy': 0.02, 'elastic_tensor_original': [[164.3697054506012, 50.89589243406537, 50.89589243406537, 0.0, 0.0, 0.0], [50.76942085728473, 164.2491073329415, 50.76942085728473, 0.0, 0.0, 0.0], [50.85398940459028, 50.85398940459028, 164.32728909089676, 0.0, 0.0, 0.0], [0.0003356604740022712, 0.0006202567087430641, 0.0005791967603869918, 49.871717719543085, 0.0, 0.0], [-0.00024433383285601165, -0.0005056869139403892, -0.0006205339250073916, 0.0, 49.87049789153869, 0.0], [-0.0007523111736482368, -0.001203468252930655, -0.0006438573167909496, 0.0, 0.0, 49.87150780770243]], 'compliance_tensor': [[7.1, -1.7, -1.7, -0.0, -0.0, 0.0], [-1.7, 7.1, -1.7, 0.0, -0.0, -0.0], [-1.7, -1.7, 7.1, -0.0, 0.0, -0.0], [-0.0, 0.0, -0.0, 20.1, -0.0, -0.0], [-0.0, -0.0, 0.0, -0.0, 20.1, -0.0], [0.0, -0.0, -0.0, -0.0, -0.0, 20.1]], 'warnings': [], 'nsites': 3}",0.0,53.0,89.0,0.02,0.25,132.5
294,mp-31182,ErAl2Ni,"{'Er': 1.0, 'Al': 2.0, 'Ni': 1.0}",0.12674759394587304,6.6560783082251165,"{'G_Reuss': 56.0, 'G_VRH': 59.0, 'G_Voigt': 61.0, 'G_Voigt_Reuss_Hill': 59.0, 'K_Reuss': 93.0, 'K_VRH': 96.0, 'K_Voigt': 98.0, 'K_Voigt_Reuss_Hill': 96.0, 'elastic_anisotropy': 0.52, 'elastic_tensor': [[163.0, 55.0, 82.0, 0.0, 0.0, 0.0], [55.0, 128.0, 65.0, 0.0, 0.0, 0.0], [82.0, 65.0, 184.0, 0.0, 0.0, 0.0], [0.0, 0.0, 0.0, 53.0, 0.0, 0.0], [0.0, 0.0, 0.0, 0.0, 96.0, 0.0], [0.0, 0.0, 0.0, 0.0, 0.0, 65.0]], 'homogeneous_poisson': 0.25, 'poisson_ratio': 0.25, 'universal_anisotropy': 0.52, 'elastic_tensor_original': [[163.18336075611418, 53.55404211892137, 87.15500583469607, 5.39997986568779e-06, 0.0, 0.0], [57.228509425896114, 127.66225810056886, 67.824081943455, 1.2600031534122166e-05, 0.0, 0.0], [77.08989339195938, 62.26181023915754, 184.28268649784516, 6.200077836214494e-06, 0.0, 0.0], [0.0, 0.0, 1.0502167922142336e-05, 53.47098245128623, 0.0, 0.0], [0.0, 0.0, 0.0, 0.0, 96.48418062603751, -1.9999799850235913e-07], [0.0, 0.0, 0.0, 0.0, 6.500011809739924e-06, 65.11891512090125]], 'compliance_tensor': [[8.3, -2.1, -3.0, -0.0, 0.0, 0.0], [-2.1, 10.1, -2.6, 0.0, 0.0, 0.0], [-3.0, -2.6, 7.7, 0.0, 0.0, 0.0], [-0.0, 0.0, 0.0, 18.7, 0.0, 0.0], [0.0, 0.0, 0.0, 0.0, 10.4, 0.0], [0.0, 0.0, 0.0, 0.0, 0.0, 15.4]], 'warnings': ['Contains a rare earth element'], 'nsites': 8}",0.0,59.0,96.0,0.52,0.25,147.5
295,mp-4025,TmNiSb,"{'Tm': 1.0, 'Ni': 1.0, 'Sb': 1.0}",0.15404153897240047,9.317107076438239,"{'G_Reuss': 60.0, 'G_VRH': 60.0, 'G_Voigt': 61.0, 'G_Voigt_Reuss_Hill': 60.0, 'K_Reuss': 81.0, 'K_VRH': 81.0, 'K_Voigt': 81.0, 'K_Voigt_Reuss_Hill': 81.0, 'elastic_anisotropy': 0.07, 'elastic_tensor': [[174.0, 35.0, 35.0, 0.0, 0.0, 0.0], [35.0, 174.0, 35.0, 0.0, 0.0, 0.0], [35.0, 35.0, 174.0, 0.0, 0.0, 0.0], [0.0, 0.0, 0.0, 55.0, 0.0, 0.0], [0.0, 0.0, 0.0, 0.0, 55.0, 0.0], [0.0, 0.0, 0.0, 0.0, 0.0, 55.0]], 'homogeneous_poisson': 0.2, 'poisson_ratio': 0.2, 'universal_anisotropy': 0.07, 'elastic_tensor_original': [[173.74593181507748, 34.694068379724534, 34.694068379724534, 0.0, 0.0, 0.0], [34.694068379724534, 173.74593181507748, 34.694068379724534, 0.0, 0.0, 0.0], [34.694068379724534, 34.694068379724534, 173.74593181507748, 0.0, 0.0, 0.0], [0.0, 0.0, 0.0, 54.56612656993799, 0.0, 0.0], [0.0, 0.0, 0.0, 0.0, 54.56612656993799, 0.0], [0.0, 0.0, 0.0, 0.0, 0.0, 54.56612656993799]], 'compliance_tensor': [[6.2, -1.0, -1.0, -0.0, 0.0, -0.0], [-1.0, 6.2, -1.0, 0.0, -0.0, 0.0], [-1.0, -1.0, 6.2, 0.0, 0.0, 0.0], [-0.0, 0.0, 0.0, 18.3, 0.0, 0.0], [0.0, -0.0, 0.0, 0.0, 18.3, 0.0], [-0.0, 0.0, 0.0, 0.0, 0.0, 18.3]], 'warnings': ['Contains a rare earth element'], 'nsites': 3}",0.0,60.0,81.0,0.07,0.2,144.0
296,mp-4037,TmNiC2,"{'Tm': 1.0, 'Ni': 1.0, 'C': 2.0}",0.15775727353085606,8.880615314104565,"{'G_Reuss': 98.0, 'G_VRH': 101.0, 'G_Voigt': 104.0, 'G_Voigt_Reuss_Hill': 101.0, 'K_Reuss': 153.0, 'K_VRH': 163.0, 'K_Voigt': 174.0, 'K_Voigt_Reuss_Hill': 163.0, 'elastic_anisotropy': 0.45, 'elastic_tensor': [[401.0, 170.0, 56.0, 0.0, 0.0, 0.0], [170.0, 335.0, 79.0, 0.0, 0.0, 0.0], [56.0, 79.0, 217.0, 0.0, 0.0, 0.0], [0.0, 0.0, 0.0, 90.0, 0.0, 0.0], [0.0, 0.0, 0.0, 0.0, 82.0, 0.0], [0.0, 0.0, 0.0, 0.0, 0.0, 131.0]], 'homogeneous_poisson': 0.24, 'poisson_ratio': 0.24, 'universal_anisotropy': 0.45, 'elastic_tensor_original': [[401.43137422810884, 168.7208218667311, 56.67871052881403, 0.0, 0.0, 0.0], [170.52193319077944, 334.63890269027513, 79.94429325610339, 0.0, 0.0, 0.0], [56.211614538246316, 77.86223121244676, 216.62796706636996, 0.0, 0.0, 0.0], [-0.00012819389097098403, 0.0003163925840716836, 0.00015199926713555634, 89.60011295760425, 0.0, 0.0], [-9.904982448045622e-05, 8.016985793602155e-05, -4.499992024880889e-06, 0.0, 81.57746807520142, 0.0], [-0.00010338983052488602, -0.00018444969765550677, -0.000140516436336783, 0.0, 0.0, 131.4062651866525]], 'compliance_tensor': [[3.2, -1.6, -0.3, 0.0, 0.0, 0.0], [-1.6, 4.0, -1.1, 0.0, 0.0, 0.0], [-0.3, -1.1, 5.1, 0.0, 0.0, 0.0], [0.0, 0.0, 0.0, 11.2, 0.0, 0.0], [0.0, 0.0, 0.0, 0.0, 12.3, 0.0], [0.0, 0.0, 0.0, 0.0, 0.0, 7.6]], 'warnings': ['Contains a rare earth element'], 'nsites': 4}",0.0,101.0,163.0,0.45,0.24,250.48
297,mp-4536,ScNi2Sn,"{'Sc': 1.0, 'Ni': 2.0, 'Sn': 1.0}",0.14190091065309673,7.6178761447634535,"{'G_Reuss': 46.0, 'G_VRH': 51.0, 'G_Voigt': 55.0, 'G_Voigt_Reuss_Hill': 51.0, 'K_Reuss': 128.0, 'K_VRH': 128.0, 'K_Voigt': 128.0, 'K_Voigt_Reuss_Hill': 128.0, 'elastic_anisotropy': 0.88, 'elastic_tensor': [[169.0, 107.0, 107.0, 0.0, 0.0, 0.0], [107.0, 169.0, 107.0, 0.0, 0.0, 0.0], [107.0, 107.0, 169.0, 0.0, 0.0, 0.0], [0.0, 0.0, 0.0, 71.0, 0.0, 0.0], [0.0, 0.0, 0.0, 0.0, 71.0, 0.0], [0.0, 0.0, 0.0, 0.0, 0.0, 71.0]], 'homogeneous_poisson': 0.33, 'poisson_ratio': 0.33, 'universal_anisotropy': 0.88, 'elastic_tensor_original': [[168.52266896409182, 108.18736050661335, 108.18736050661335, 0.0, 0.0, 0.0], [108.53983218252499, 168.14087318730267, 108.53983218252499, 0.0, 0.0, 0.0], [104.78464495718335, 104.78464495718335, 169.04347077733422, 0.0, 0.0, 0.0], [-0.0018951209783543898, -0.0017246178568955084, -0.0016824945759082476, 70.64326946155882, 0.0, 0.0], [-0.0014560681906099495, -0.0017454511643414637, -0.001440604876493686, 0.0, 70.64373337098233, 0.0], [-0.0013293050147998781, 0.0008520756078321491, -0.0007900056849625258, 0.0, 0.0, 70.64359378448913]], 'compliance_tensor': [[11.7, -4.6, -4.6, 0.0, 0.0, 0.0], [-4.6, 11.7, -4.6, 0.0, 0.0, 0.0], [-4.6, -4.6, 11.7, 0.0, 0.0, 0.0], [0.0, 0.0, 0.0, 14.2, 0.0, 0.0], [0.0, 0.0, 0.0, 0.0, 14.2, 0.0], [0.0, 0.0, 0.0, 0.0, 0.0, 14.2]], 'warnings': [], 'nsites': 4}",0.0,51.0,128.0,0.88,0.33,135.66
298,mp-4865,Er(NiGe)2,"{'Er': 1.0, 'Ni': 2.0, 'Ge': 2.0}",0.14736538082902068,8.918250014226778,"{'G_Reuss': 48.0, 'G_VRH': 49.0, 'G_Voigt': 50.0, 'G_Voigt_Reuss_Hill': 49.0, 'K_Reuss': 95.0, 'K_VRH': 96.0, 'K_Voigt': 97.0, 'K_Voigt_Reuss_Hill': 96.0, 'elastic_anisotropy': 0.31, 'elastic_tensor': [[166.0, 33.0, 75.0, 0.0, 0.0, 0.0], [33.0, 166.0, 75.0, 0.0, 0.0, 0.0], [75.0, 75.0, 175.0, 0.0, 0.0, 0.0], [0.0, 0.0, 0.0, 54.0, 0.0, 0.0], [0.0, 0.0, 0.0, 0.0, 54.0, 0.0], [0.0, 0.0, 0.0, 0.0, 0.0, 35.0]], 'homogeneous_poisson': 0.28, 'poisson_ratio': 0.28, 'universal_anisotropy': 0.31, 'elastic_tensor_original': [[166.36126766668292, 33.44949593866975, 73.86724824262174, 0.0, 7.600103139990977e-06, 0.0], [33.44949593866905, 166.36126766667945, 73.86724824262019, -7.473370054147743e-06, 0.0, 0.0], [76.87245402263751, 76.87245402263751, 174.54445756333465, 0.0, 0.0, 0.0], [0.0, -1.1087884161042118e-05, 0.0, 54.33579611305682, 8.868237809007921e-07, 5.543965652719777e-06], [1.1087884161042118e-05, 0.0, 0.0, -8.868237808997896e-07, 54.3357961130568, -5.543926429134427e-06], [0.350751120572586, -0.3507511205652459, 0.0, 3.003711635071136e-07, 3.0000031693460215e-07, 35.073246854920804]], 'compliance_tensor': [[7.5, -0.1, -3.2, 0.0, -0.0, 0.0], [-0.1, 7.5, -3.2, -0.0, 0.0, 0.0], [-3.2, -3.2, 8.5, -0.0, -0.0, 0.0], [0.0, -0.0, -0.0, 18.4, 0.0, -0.0], [-0.0, 0.0, -0.0, 0.0, 18.4, -0.0], [0.0, 0.0, 0.0, -0.0, -0.0, 28.5]], 'warnings': ['Contains a rare earth element'], 'nsites': 5}",0.0,49.0,96.0,0.31,0.28,125.44
299,mp-4922,MnAlNi2,"{'Mn': 1.0, 'Al': 1.0, 'Ni': 2.0}",0.12047149156979127,6.845276428206297,"{'G_Reuss': -16.0, 'G_VRH': 26.0, 'G_Voigt': 68.0, 'G_Voigt_Reuss_Hill': 26.0, 'K_Reuss': 158.0, 'K_VRH': 158.0, 'K_Voigt': 158.0, 'K_Voigt_Reuss_Hill': 158.0, 'elastic_anisotropy': -25.58, 'elastic_tensor': [[150.0, 162.0, 162.0, 0.0, 0.0, 0.0], [162.0, 150.0, 162.0, 0.0, 0.0, 0.0], [162.0, 162.0, 150.0, 0.0, 0.0, 0.0], [0.0, 0.0, 0.0, 117.0, 0.0, 0.0], [0.0, 0.0, 0.0, 0.0, 117.0, 0.0], [0.0, 0.0, 0.0, 0.0, 0.0, 117.0]], 'homogeneous_poisson': 0.42, 'poisson_ratio': 0.42, 'universal_anisotropy': -25.58, 'elastic_tensor_original': [[156.0479382414847, 167.27307719541525, 166.83638604222116, 0.3122163205358683, -0.06288606469336352, 0.17106313836806156], [159.3313508584544, 148.52280279400486, 159.40328481032597, 1.0150876265092927, 1.3624358488408954, -0.9969795161616279], [160.48442395018563, 160.4842577721743, 145.8781232667385, 0.0, -5.2951968975825455e-05, -5.539263709959057e-05], [-6.06917747205904e-08, 0.008296406618828989, -0.0082734272880484, 117.07262859576541, 0.02832922395364795, 0.2195789826453778], [-0.10981170034478126, -0.12312618638342035, -0.12638984383442411, 0.24792361708401064, 117.07273864528378, 0.19125905578485772], [-0.00830648533407775, 0.008263729573265785, 8.611438750580864e-08, 0.02832502849704767, -0.21958791032782213, 117.0726286080421]], 'compliance_tensor': [[-54.2, 28.1, 28.1, -0.0, 0.0, 0.0], [28.1, -54.2, 28.1, 0.0, -0.0, -0.0], [28.1, 28.1, -54.2, -0.0, -0.0, -0.0], [-0.0, 0.0, -0.0, 8.5, -0.0, -0.0], [0.0, -0.0, -0.0, -0.0, 8.5, -0.0], [0.0, -0.0, -0.0, -0.0, -0.0, 8.5]], 'warnings': ['Elastic tensor has a negative eigenvalue', 'c11 and c12 are within 5% or c12 is greater than c11', 'c11 and c13 are within 5% or c13 is greater than c11', 'c11 and c23 are within 5% or c23 is greater than c11', 'One or more K, G below 2 GPa'], 'nsites': 4}",0.0,26.0,158.0,-25.58,0.42,73.84
300,mp-5109,Y(NiGe)2,"{'Y': 1.0, 'Ni': 2.0, 'Ge': 2.0}",0.14684522955239585,7.185182168963333,"{'G_Reuss': 48.0, 'G_VRH': 51.0, 'G_Voigt': 53.0, 'G_Voigt_Reuss_Hill': 51.0, 'K_Reuss': 97.0, 'K_VRH': 106.0, 'K_Voigt': 115.0, 'K_Voigt_Reuss_Hill': 106.0, 'elastic_anisotropy': 0.7, 'elastic_tensor': [[172.0, 22.0, 102.0, 0.0, 0.0, 0.0], [22.0, 172.0, 102.0, 0.0, 0.0, 0.0], [102.0, 102.0, 237.0, 0.0, 0.0, 0.0], [0.0, 0.0, 0.0, 55.0, 0.0, 0.0], [0.0, 0.0, 0.0, 0.0, 55.0, 0.0], [0.0, 0.0, 0.0, 0.0, 0.0, 37.0]], 'homogeneous_poisson': 0.29, 'poisson_ratio': 0.29, 'universal_anisotropy': 0.7, 'elastic_tensor_original': [[171.50070835463393, 22.49073360061206, 103.28964470435034, 1.040008795191518e-05, 0.0, 0.0], [22.490733600612103, 171.50070835463393, 103.28964470435034, 0.0, -1.0610034347415808e-05, 0.0], [101.3803713992189, 101.3803713992189, 237.38283612262225, 2.4000146490604607e-05, 2.4000146490604607e-05, 0.0], [0.0, -1.1197194003735587e-07, 0.0, 55.088103216853845, 7.072025109432139e-07, -5.598587154652807e-08], [-1.1197194003735587e-07, 0.0, 0.0, -7.072025110152034e-07, 55.088103216853845, -5.5986001667805076e-08], [0.3750092174179559, -0.37500921741787313, 0.0, -1.2000066157267775e-06, 1.1574216892792838e-08, 37.49933743305709]], 'compliance_tensor': [[8.1, 1.4, -4.1, -0.0, 0.0, 0.0], [1.4, 8.1, -4.1, 0.0, 0.0, 0.0], [-4.1, -4.1, 7.7, 0.0, 0.0, 0.0], [-0.0, 0.0, 0.0, 18.2, 0.0, 0.0], [0.0, 0.0, 0.0, 0.0, 18.2, 0.0], [0.0, 0.0, 0.0, 0.0, 0.0, 26.7]], 'warnings': [], 'nsites': 5}",0.0,51.0,106.0,0.7,0.29,131.58
301,mp-5528,Ni3(SnS)2,"{'Ni': 3.0, 'Sn': 2.0, 'S': 2.0}",0.1334486091133637,6.788405454793906,"{'G_Reuss': 23.0, 'G_VRH': 27.0, 'G_Voigt': 31.0, 'G_Voigt_Reuss_Hill': 27.0, 'K_Reuss': 20.0, 'K_VRH': 25.0, 'K_Voigt': 31.0, 'K_Voigt_Reuss_Hill': 25.0, 'elastic_anisotropy': 2.25, 'elastic_tensor': [[36.0, 4.0, 11.0, -4.0, 0.0, 0.0], [4.0, 36.0, 11.0, 4.0, 0.0, 0.0], [11.0, 11.0, 153.0, 0.0, 0.0, 0.0], [-4.0, 4.0, 0.0, 36.0, 0.0, 0.0], [0.0, 0.0, 0.0, 0.0, 36.0, -4.0], [0.0, 0.0, 0.0, 0.0, -4.0, 16.0]], 'homogeneous_poisson': 0.11, 'poisson_ratio': 0.11, 'universal_anisotropy': 2.25, 'elastic_tensor_original': [[33.23181443452312, 1.665366401422484, 20.519976662999042, -0.4227498480056086, 0.0, 0.0], [2.773167189094525, 43.55181209353551, 25.885804050349442, 7.969957116319902, 0.0, 0.0], [-0.2592118673210635, -0.2592118673210635, 153.28888503397465, 1.1600128317011897e-05, 0.0, 0.0], [-27.458846100240674, -20.578791746151314, -5.852513455753808, 35.517189464089434, 0.0, 0.0], [0.0, 0.0, 0.0, 0.0, 37.06897375027397, -3.928889871250092], [0.0, 0.0, 0.0, 0.0, -3.839541194009578, 14.124065177963743]], 'compliance_tensor': [[28.8, -3.1, -1.9, 3.4, -0.0, -0.0], [-3.1, 28.8, -1.9, -3.4, -0.0, -0.0], [-1.9, -1.9, 6.8, -0.0, -0.0, 0.0], [3.4, -3.4, -0.0, 28.3, -0.0, 0.0], [-0.0, -0.0, -0.0, -0.0, 28.3, 6.8], [-0.0, -0.0, 0.0, 0.0, 6.8, 63.7]], 'warnings': [], 'nsites': 7}",0.0,27.0,25.0,2.25,0.11,59.940000000000005