,mp_id,Formula,Composition,IPF,Density,Elastic_Tensor,E_above_Hull,G_VRH,K_VRH,Elastic_Anisotropy,poisson_ratio,Y_Modulus
366,mp-555718,SrNiF6,"{'Sr': 1.0, 'Ni': 1.0, 'F': 6.0}",0.19784340120442637,4.246523818062868,"{'G_Reuss': 21.0, 'G_VRH': 23.0, 'G_Voigt': 24.0, 'G_Voigt_Reuss_Hill': 23.0, 'K_Reuss': 62.0, 'K_VRH': 64.0, 'K_Voigt': 66.0, 'K_Voigt_Reuss_Hill': 64.0, 'elastic_anisotropy': 0.68, 'elastic_tensor': [[82.0, 48.0, 46.0, -2.0, 0.0, 0.0], [48.0, 82.0, 46.0, 2.0, 0.0, 0.0], [46.0, 46.0, 151.0, 0.0, 0.0, 0.0], [-2.0, 2.0, 0.0, 22.0, 0.0, 0.0], [0.0, 0.0, 0.0, 0.0, 22.0, -2.0], [0.0, 0.0, 0.0, 0.0, -2.0, 17.0]], 'homogeneous_poisson': 0.34, 'poisson_ratio': 0.34, 'universal_anisotropy': 0.68, 'elastic_tensor_original': [[82.03069915094291, 47.5616498843823, 47.57803503327619, 0.6334176660520666, 0.0, 0.0], [48.31992186332186, 81.41279535629953, 48.12605094015432, -0.9792108852575765, 0.0, 0.0], [45.02043646346487, 45.02043925803842, 151.04500895927688, 0.0, 0.0, 0.0], [2.5018086162895736, -2.3809430272441308, -18.37960422796446, 20.87643904648807, 0.0, 0.0], [-0.019072310902179986, -0.18522864390514043, -0.04884937142826946, 0.09189683708053091, 23.28022815641609, 1.0548774389404552], [0.03797886427599036, 0.04270487233431187, 0.04049262147024033, 0.006354712907090294, 1.714779611843133, 17.144732402302445]], 'compliance_tensor': [[19.7, -9.8, -3.0, 2.0, 0.0, -0.0], [-9.8, 19.7, -3.0, -2.0, -0.0, -0.0], [-3.0, -3.0, 8.5, 0.0, 0.0, 0.0], [2.0, -2.0, 0.0, 45.6, -0.0, -0.0], [0.0, -0.0, -0.0, -0.0, 45.6, 4.0], [-0.0, -0.0, 0.0, -0.0, 4.0, 59.1]], 'warnings': [], 'nsites': 8}",0.0,23.0,64.0,0.68,0.34,61.64
367,mp-557958,Cs2KNiF6,"{'Cs': 2.0, 'K': 1.0, 'Ni': 1.0, 'F': 6.0}",0.3984009842792269,4.218881622227572,"{'G_Reuss': 14.0, 'G_VRH': 15.0, 'G_Voigt': 15.0, 'G_Voigt_Reuss_Hill': 15.0, 'K_Reuss': 57.0, 'K_VRH': 57.0, 'K_Voigt': 57.0, 'K_Voigt_Reuss_Hill': 57.0, 'elastic_anisotropy': 0.13, 'elastic_tensor': [[76.0, 43.0, 49.0, 0.0, 0.0, 0.0], [43.0, 76.0, 49.0, 0.0, 0.0, 0.0], [49.0, 49.0, 75.0, 0.0, 0.0, 0.0], [0.0, 0.0, 0.0, 17.0, 0.0, 0.0], [0.0, 0.0, 0.0, 0.0, 17.0, 0.0], [0.0, 0.0, 0.0, 0.0, 0.0, 12.0]], 'homogeneous_poisson': 0.38, 'poisson_ratio': 0.38, 'universal_anisotropy': 0.13, 'elastic_tensor_original': [[72.48876936101213, 51.37295557403667, 46.66705811812811, -5.194096667533989e-06, 0.07299468155845334, -8.10871661910456e-06], [52.33263119662017, 72.94067757470035, 47.81362759564994, 0.07729170376795727, 1.9493186958202867e-07, -5.611174904740869e-06], [44.13708222831567, 49.96100318193395, 72.48876936101226, -7.970332184512312e-06, -0.07094399217240815, -4.990668326863863e-06], [0.1337789640340392, -0.08533392411073268, -0.32900628295595485, 16.554291815384055, 6.11005854378059e-08, -3.8728912687137413e-08], [0.0, 0.0, 0.0, -1.8125365618347291e-06, 16.622796321003232, -1.8477299866537773e-06], [-0.32445344841016693, -0.08653126490903822, 0.13948995417122123, 9.712221716514852e-09, -9.842389998532284e-08, 16.55427110085285]], 'compliance_tensor': [[24.45683867596951, -6.268584654073562, -11.865956912252013, -1.8778861436636534e-06, 3.870496437618172e-06, -9.751160745962394e-06], [-6.268584654073556, 24.456828008959814, -11.865954324544223, 2.8510206334046595e-06, -9.920561672156293e-07, -1.4482010616574226e-05], [-11.86595691225202, -11.865954324544218, 28.74204012250359, 4.548663910937032e-06, 2.851022668436045e-06, 4.731063715855959e-06], [-1.8778861436663154e-06, 2.851020633402003e-06, 4.548663910939001e-06, 59.761904985964655, -1.1913806064253948e-05, 6.740352269141727e-06], [3.87049643761615e-06, -9.920561672176495e-07, 2.851022668439453e-06, -1.1913806064254163e-05, 59.76191801874198, 4.728906233385708e-06], [-9.751160750797087e-06, -1.4482010622934416e-05, 4.731063728392651e-06, 6.740352269164623e-06, 4.728906233396117e-06, 85.18168946496053]], 'warnings': [], 'nsites': 10}",0.0,15.0,57.0,0.13,0.38,41.4
368,mp-568940,Y(NiP)2,"{'Y': 1.0, 'Ni': 2.0, 'P': 2.0}",0.13361679771590054,6.264558082493623,"{'G_Reuss': 82.0, 'G_VRH': 85.0, 'G_Voigt': 87.0, 'G_Voigt_Reuss_Hill': 85.0, 'K_Reuss': 140.0, 'K_VRH': 140.0, 'K_Voigt': 140.0, 'K_Voigt_Reuss_Hill': 140.0, 'elastic_anisotropy': 0.27, 'elastic_tensor': [[256.0, 57.0, 99.0, 0.0, 0.0, 0.0], [57.0, 256.0, 99.0, 0.0, 0.0, 0.0], [99.0, 99.0, 240.0, 0.0, 0.0, 0.0], [0.0, 0.0, 0.0, 103.0, 0.0, 0.0], [0.0, 0.0, 0.0, 0.0, 103.0, 0.0], [0.0, 0.0, 0.0, 0.0, 0.0, 62.0]], 'homogeneous_poisson': 0.25, 'poisson_ratio': 0.25, 'universal_anisotropy': 0.27, 'elastic_tensor_original': [[255.92448797842576, 57.286217513771, 94.33127745685725, 0.0, 0.0, 0.0], [57.290168351720645, 255.92859241490336, 94.33547659864315, 0.0, 0.0, 0.0], [102.67960077030745, 102.67960077030745, 239.83282919099526, 0.0, 0.0, 0.0], [0.2850269429035482, 0.27873421873874915, 0.3004424874172584, 103.00551449604133, 0.0, 0.0], [0.025160789530816675, 0.027627982096902037, 0.026912768826742532, 0.0, 103.02473536480173, 0.0], [0.532180788403377, -0.5318508804478171, 0.00016834399102266446, 0.0, 0.0, 62.07668342372435]], 'compliance_tensor': [[4.7, -0.4, -1.8, 0.0, -0.0, -0.0], [-0.4, 4.7, -1.8, 0.0, 0.0, 0.0], [-1.8, -1.8, 5.6, -0.0, -0.0, -0.0], [0.0, 0.0, -0.0, 9.7, 0.0, 0.0], [-0.0, 0.0, -0.0, 0.0, 9.7, 0.0], [-0.0, 0.0, -0.0, 0.0, 0.0, 16.1]], 'warnings': [], 'nsites': 5}",0.0,85.0,140.0,0.27,0.25,212.5
369,mp-7066,ScNiGe,"{'Sc': 1.0, 'Ni': 1.0, 'Ge': 1.0}",0.13878020872586513,6.237469421581338,"{'G_Reuss': 61.0, 'G_VRH': 63.0, 'G_Voigt': 64.0, 'G_Voigt_Reuss_Hill': 63.0, 'K_Reuss': 123.0, 'K_VRH': 124.0, 'K_Voigt': 125.0, 'K_Voigt_Reuss_Hill': 124.0, 'elastic_anisotropy': 0.22, 'elastic_tensor': [[200.0, 69.0, 59.0, 0.0, 0.0, 0.0], [69.0, 212.0, 115.0, 0.0, 0.0, 0.0], [59.0, 115.0, 224.0, 0.0, 0.0, 0.0], [0.0, 0.0, 0.0, 76.0, 0.0, 0.0], [0.0, 0.0, 0.0, 0.0, 52.0, 0.0], [0.0, 0.0, 0.0, 0.0, 0.0, 60.0]], 'homogeneous_poisson': 0.28, 'poisson_ratio': 0.28, 'universal_anisotropy': 0.22, 'elastic_tensor_original': [[224.4229029189937, 57.29767530512215, 114.55483644864694, 0.0, 0.0, 0.0], [60.37179307424037, 200.32714552921783, 69.2788816736365, 0.0, 0.0, 0.0], [115.34047085990512, 69.19810458462361, 211.53369385577278, 0.0, 0.0, 0.0], [-0.17775893965100406, -0.18786165055926854, -0.18988216798943408, 60.146886177509046, 0.0, 0.0], [-0.03981573445420289, -0.04287667992574578, -0.04464968590015421, 0.0, 76.36999658849882, 0.0], [-0.00018674992443221768, 0.0005116131263075208, 0.000524079787929742, 0.0, 0.0, 51.64460321521068]], 'compliance_tensor': [[5.7, -1.5, -0.7, 0.0, 0.0, 0.0], [-1.5, 6.9, -3.2, 0.0, -0.0, 0.0], [-0.7, -3.2, 6.3, 0.0, 0.0, 0.0], [0.0, 0.0, 0.0, 13.1, 0.0, 0.0], [0.0, -0.0, 0.0, 0.0, 19.4, 0.0], [0.0, 0.0, 0.0, 0.0, 0.0, 16.6]], 'warnings': [], 'nsites': 12}",0.0,63.0,124.0,0.22,0.28,161.28
370,mp-865792,BeSiNi2,"{'Be': 1.0, 'Si': 1.0, 'Ni': 2.0}",0.12265591256787992,6.402183103085747,"{'G_Reuss': 39.0, 'G_VRH': 61.0, 'G_Voigt': 83.0, 'G_Voigt_Reuss_Hill': 61.0, 'K_Reuss': 198.0, 'K_VRH': 198.0, 'K_Voigt': 198.0, 'K_Voigt_Reuss_Hill': 198.0, 'elastic_anisotropy': 5.69, 'elastic_tensor': [[223.0, 185.0, 185.0, 0.0, 0.0, 0.0], [185.0, 223.0, 185.0, 0.0, 0.0, 0.0], [185.0, 185.0, 223.0, 0.0, 0.0, 0.0], [0.0, 0.0, 0.0, 126.0, 0.0, 0.0], [0.0, 0.0, 0.0, 0.0, 126.0, 0.0], [0.0, 0.0, 0.0, 0.0, 0.0, 126.0]], 'homogeneous_poisson': 0.36, 'poisson_ratio': 0.36, 'universal_anisotropy': 5.69, 'elastic_tensor_original': [[224.20896696401982, 185.06328894329388, 185.06328894329388, 0.0, 0.0, 0.0], [185.13443549579907, 221.88424711972306, 185.13443549579907, 0.0, 0.0, 0.0], [185.09202586612787, 185.09202586612787, 224.23826241420414, 0.0, 0.0, 0.0], [-0.0009732996751769566, -0.0002110266661905904, -0.00029417996819073883, 126.28028247948758, 0.0, 0.0], [-0.025694113842433326, 0.009258695254901068, -0.025259460731081144, 0.0, 126.36001912843135, 0.0], [-0.027320256483879438, -0.026786366752949698, 0.008786478726811394, 0.0, 0.0, 126.36028765859211]], 'compliance_tensor': [[17.9, -8.1, -8.1, 0.0, 0.0, -0.0], [-8.1, 17.9, -8.1, -0.0, 0.0, 0.0], [-8.1, -8.1, 17.9, 0.0, -0.0, 0.0], [0.0, -0.0, 0.0, 7.9, -0.0, -0.0], [0.0, 0.0, -0.0, -0.0, 7.9, -0.0], [-0.0, 0.0, 0.0, -0.0, -0.0, 7.9]], 'warnings': [], 'nsites': 4}",0.0,61.0,198.0,5.69,0.36,165.92
371,mp-9672,K2NiP2,"{'K': 2.0, 'Ni': 1.0, 'P': 2.0}",0.26102176968061674,2.650848206371612,"{'G_Reuss': 12.0, 'G_VRH': 14.0, 'G_Voigt': 15.0, 'G_Voigt_Reuss_Hill': 14.0, 'K_Reuss': 21.0, 'K_VRH': 21.0, 'K_Voigt': 21.0, 'K_Voigt_Reuss_Hill': 21.0, 'elastic_anisotropy': 1.0, 'elastic_tensor': [[45.0, 12.0, 1.0, 0.0, 0.0, 0.0], [12.0, 37.0, 18.0, 0.0, 0.0, 0.0], [1.0, 18.0, 45.0, 0.0, 0.0, 0.0], [0.0, 0.0, 0.0, 21.0, 0.0, 0.0], [0.0, 0.0, 0.0, 0.0, 8.0, 0.0], [0.0, 0.0, 0.0, 0.0, 0.0, 14.0]], 'homogeneous_poisson': 0.23, 'poisson_ratio': 0.23, 'universal_anisotropy': 1.0, 'elastic_tensor_original': [[44.63990551382793, 10.971906713956592, -1.796718932514148, 0.0, 0.0, 7.999896401449904e-07], [12.455510065939128, 36.63915336295298, 16.31891533279705, 0.0, 0.0, 0.0], [3.37161993065716, 20.500836223715055, 44.96849466077536, 0.0, 0.0, 0.0], [0.0, 0.0, 0.0, 21.17454651854068, 0.0, 0.0], [0.0, 0.0, 0.0, 0.0, 7.566164793951768, 0.0], [-1.9734113499176024e-08, 0.0, 0.0, 0.0, 0.0, 13.688667599875995]], 'compliance_tensor': [[24.895891035233408, -9.744861108458059, 3.5535412485562565, 0.0, 0.0, 3.589087915607704e-08], [-9.744861108458059, 38.17599009846711, -15.458414717356002, 0.0, 0.0, 3.860953916627575e-08], [3.5535412485562574, -15.458414717356003, 28.504162003085867, 0.0, 0.0, 5.122922467308763e-09], [0.0, 0.0, 0.0, 47.22651316874195, 9.52687858293426e-08, 0.0], [0.0, 0.0, 0.0, 9.526878582934259e-08, 132.16735654494062, 0.0], [3.5890879156077035e-08, 3.8609539166275765e-08, 5.12292246730876e-09, 0.0, 0.0, 73.05312899913348]], 'warnings': [], 'nsites': 10}",0.0,14.0,21.0,1.0,0.23,34.44
372,mp-973633,LuSi2Ni,"{'Lu': 1.0, 'Si': 2.0, 'Ni': 1.0}",0.11514885466924046,7.677877764375443,"{'G_Reuss': 61.0, 'G_VRH': 63.0, 'G_Voigt': 65.0, 'G_Voigt_Reuss_Hill': 63.0, 'K_Reuss': 128.0, 'K_VRH': 129.0, 'K_Voigt': 130.0, 'K_Voigt_Reuss_Hill': 129.0, 'elastic_anisotropy': 0.38, 'elastic_tensor': [[197.0, 119.0, 73.0, 0.0, 0.0, 0.0], [119.0, 205.0, 98.0, 0.0, 0.0, 0.0], [73.0, 98.0, 188.0, 0.0, 0.0, 0.0], [0.0, 0.0, 0.0, 71.0, 0.0, 0.0], [0.0, 0.0, 0.0, 0.0, 71.0, 0.0], [0.0, 0.0, 0.0, 0.0, 0.0, 82.0]], 'homogeneous_poisson': 0.29, 'poisson_ratio': 0.29, 'universal_anisotropy': 0.38, 'elastic_tensor_original': [[188.44370555041507, 85.49501396622837, 66.58308151806165, 0.0, 0.0, 0.0], [110.33290182920842, 205.42720354815293, 125.6161979304099, 0.0, 0.0, 0.0], [79.84233895012255, 112.07383944542383, 196.59173707415377, 0.0, 0.0, 0.0], [0.0, 0.0, 0.0, 82.30033636294604, 0.0, 0.0], [0.0, 0.0, 0.0, -0.0035254270797853418, 70.95279860809684, 0.0], [0.0, 0.0, 0.0, 0.0, 0.0, 71.38677149885577]], 'compliance_tensor': [[7.9, -4.2, -0.9, 0.0, 0.0, 0.0], [-4.2, 8.6, -2.9, -0.0, 0.0, 0.0], [-0.9, -2.9, 7.2, -0.0, 0.0, 0.0], [0.0, -0.0, -0.0, 14.0, 0.0, 0.0], [0.0, 0.0, 0.0, 0.0, 14.1, -0.0], [0.0, 0.0, 0.0, 0.0, -0.0, 12.2]], 'warnings': ['Contains a rare earth element'], 'nsites': 8}",0.0,63.0,129.0,0.38,0.29,162.54
373,mp-18908,Sr2NiTeO6,"{'Sr': 2.0, 'Ni': 1.0, 'Te': 1.0, 'O': 6.0}",0.6248182850939709,5.911444405923028,"{'G_Reuss': 60.0, 'G_VRH': 62.0, 'G_Voigt': 64.0, 'G_Voigt_Reuss_Hill': 62.0, 'K_Reuss': 130.0, 'K_VRH': 131.0, 'K_Voigt': 131.0, 'K_Voigt_Reuss_Hill': 131.0, 'elastic_anisotropy': 0.43, 'elastic_tensor': [[197.0, 80.0, 97.0, 0.0, -12.0, 0.0], [80.0, 224.0, 77.0, 0.0, 11.0, 0.0], [97.0, 77.0, 254.0, 0.0, 8.0, 0.0], [0.0, 0.0, 0.0, 40.0, 0.0, -1.0], [-12.0, 11.0, 8.0, 0.0, 78.0, 0.0], [0.0, 0.0, 0.0, -1.0, 0.0, 65.0]], 'homogeneous_poisson': 0.3, 'poisson_ratio': 0.3, 'universal_anisotropy': 0.43, 'elastic_tensor_original': [[196.7814341862609, 84.07091594140542, 105.46543999104125, 0.0, -9.20211363519358, 0.0], [76.10275271180583, 223.6634625062789, 82.65078041826037, -1.5999867824386754e-06, 12.233296340199786, -9.599920694632053e-06], [87.94740891580166, 70.6810795932384, 254.03609953124968, 0.0, 8.96893913801397, 0.0], [0.0, 0.0, 0.0, 39.54476158477429, 0.0, -5.7362896447396965], [-14.875395372839192, 9.532786627184024, 7.079793090458633, 0.0, 77.617912558713, 0.0], [0.0, 0.0, 0.0, 3.316890239113434, 0.0, 64.78632710587034]], 'compliance_tensor': [[6.983947949590519, -1.8387878899101802, -2.1531240844548933, 1.5741427181632275e-16, 1.5635859354023796, 3.979639968377948e-16], [-1.8387878899101802, 5.49412419747789, -0.927771666061873, -4.2258495591148095e-16, -0.9596109193230096, 3.71638590805903e-16], [-2.1531240844548947, -0.9277716660618727, 5.059062725092482, -9.017107968929191e-16, -0.7268720160824153, -8.093057668776029e-17], [1.5741427181632304e-16, -4.2258495591148105e-16, -9.017107968929191e-16, 25.30224178551935, 9.113946202257155e-16, 0.47255294828546873], [1.5635859354023796, -0.9596109193230096, -0.7268720160824148, 9.113946202257154e-16, 13.33575058992979, -6.428794726688543e-16], [3.9796399683779484e-16, 3.716385908059029e-16, -8.093057668776018e-17, 0.4725529482854688, -6.428794726688543e-16, 15.44418737841522]], 'warnings': [], 'nsites': 40}",0.0,62.0,131.0,0.43,0.3,161.20000000000002
374,mp-568083,LaNi2B2C,"{'La': 1.0, 'Ni': 2.0, 'B': 2.0, 'C': 1.0}",0.15450519438335641,6.869208900789395,"{'G_Reuss': 75.0, 'G_VRH': 81.0, 'G_Voigt': 88.0, 'G_Voigt_Reuss_Hill': 81.0, 'K_Reuss': 78.0, 'K_VRH': 81.0, 'K_Voigt': 84.0, 'K_Voigt_Reuss_Hill': 81.0, 'elastic_anisotropy': 0.98, 'elastic_tensor': [[245.0, 97.0, -39.0, 0.0, 0.0, 0.0], [97.0, 245.0, -39.0, 0.0, 0.0, 0.0], [-39.0, -39.0, 226.0, 0.0, 0.0, 0.0], [0.0, 0.0, 0.0, 55.0, 0.0, 0.0], [0.0, 0.0, 0.0, 0.0, 55.0, 0.0], [0.0, 0.0, 0.0, 0.0, 0.0, 98.0]], 'homogeneous_poisson': 0.12, 'poisson_ratio': 0.12, 'universal_anisotropy': 0.98, 'elastic_tensor_original': [[245.42935588002402, 96.98928641529872, -207.36299322250042, 2.0999461838075016e-05, 0.0, -2.559934395498669e-05], [96.98928641528406, 245.42935587992744, -207.36299322242607, 2.1466169642399247e-05, 4.6670793146673367e-07, -6.661961309092314e-05], [128.9355163273867, 128.9355163273867, 226.30687855795642, -2.279980374005177e-05, 0.0, -3.399970733165614e-05], [0.0, -1.129444247482897e-05, 0.0, 54.552107958334155, -1.4799981423067313e-05, 0.0], [0.0, 0.0, 0.0, 1.0820394205162489e-07, 54.55210795833012, -5.647221774224206e-06], [0.9818331749668288, -0.9818860600273476, -1.0403939691052988e-09, -2.2912141785577587e-06, -2.2912148035987885e-06, 98.18378155786057]], 'compliance_tensor': [[4.9, -1.8, 0.5, 0.0, -0.0, 0.0], [-1.8, 4.9, 0.5, 0.0, 0.0, 0.0], [0.5, 0.5, 4.6, 0.0, -0.0, 0.0], [0.0, 0.0, 0.0, 18.3, 0.0, 0.0], [-0.0, 0.0, -0.0, 0.0, 18.3, 0.0], [0.0, 0.0, 0.0, 0.0, 0.0, 10.2]], 'warnings': ['Contains a rare earth element'], 'nsites': 6}",0.0,81.0,81.0,0.98,0.12,181.44000000000003
375,mp-6092,TbNi2B2C,"{'Tb': 1.0, 'Ni': 2.0, 'B': 2.0, 'C': 1.0}",0.12284716464005863,7.85824455668409,"{'G_Reuss': 70.0, 'G_VRH': 74.0, 'G_Voigt': 77.0, 'G_Voigt_Reuss_Hill': 74.0, 'K_Reuss': 186.0, 'K_VRH': 186.0, 'K_Voigt': 186.0, 'K_Voigt_Reuss_Hill': 186.0, 'elastic_anisotropy': 0.5, 'elastic_tensor': [[286.0, 122.0, 147.0, 0.0, 0.0, 0.0], [122.0, 286.0, 147.0, 0.0, 0.0, 0.0], [147.0, 147.0, 270.0, 0.0, 0.0, 0.0], [0.0, 0.0, 0.0, 58.0, 0.0, 0.0], [0.0, 0.0, 0.0, 0.0, 58.0, 0.0], [0.0, 0.0, 0.0, 0.0, 0.0, 128.0]], 'homogeneous_poisson': 0.33, 'poisson_ratio': 0.33, 'universal_anisotropy': 0.5, 'elastic_tensor_original': [[285.58390766315927, 121.71314083311418, 145.5296344859112, 1.4199891877002892e-05, -1.4199891877002892e-05, 0.0], [121.71314083310716, 285.58390766314284, 145.52963448590285, 1.4318242610640586e-05, -1.4199891878358004e-05, 0.0], [149.15909342943178, 149.15909342943178, 269.85087004415794, 2.5999783373813724e-05, -2.5999783373813724e-05, 0.0], [0.0, 1.1303684433630792e-05, 0.0, 57.68354661880158, 2.9184813028188654e-08, -5.651821771935279e-06], [-1.1303684434743478e-05, 0.0, 0.0, -2.9184813008056828e-08, 57.68354661880158, 5.651863096203456e-06], [1.2826834205145647, -1.2826834205145967, 0.0, -1.2138763569587993e-08, 0.0, 128.2605979252928]], 'compliance_tensor': [[5.1, -1.0, -2.2, -0.0, 0.0, 0.0], [-1.0, 5.1, -2.2, 0.0, -0.0, 0.0], [-2.2, -2.2, 6.1, 0.0, 0.0, 0.0], [-0.0, 0.0, 0.0, 17.3, 0.0, 0.0], [0.0, -0.0, 0.0, 0.0, 17.3, 0.0], [0.0, 0.0, 0.0, 0.0, 0.0, 7.8]], 'warnings': ['Contains a rare earth element'], 'nsites': 6}",0.0,74.0,186.0,0.5,0.33,196.84
376,mp-6102,NdNi2B2C,"{'Nd': 1.0, 'Ni': 2.0, 'B': 2.0, 'C': 1.0}",0.18739545945893413,7.179174764403756,"{'G_Reuss': 72.0, 'G_VRH': 74.0, 'G_Voigt': 76.0, 'G_Voigt_Reuss_Hill': 74.0, 'K_Reuss': 178.0, 'K_VRH': 178.0, 'K_Voigt': 178.0, 'K_Voigt_Reuss_Hill': 178.0, 'elastic_anisotropy': 0.32, 'elastic_tensor': [[272.0, 119.0, 137.0, 0.0, 0.0, 0.0], [119.0, 272.0, 137.0, 0.0, 0.0, 0.0], [137.0, 137.0, 270.0, 0.0, 0.0, 0.0], [0.0, 0.0, 0.0, 62.0, 0.0, 0.0], [0.0, 0.0, 0.0, 0.0, 62.0, 0.0], [0.0, 0.0, 0.0, 0.0, 0.0, 118.0]], 'homogeneous_poisson': 0.32, 'poisson_ratio': 0.32, 'universal_anisotropy': 0.32, 'elastic_tensor_original': [[272.1037757707317, 119.05773966881426, 143.72441434965228, 0.0, 0.0, 0.0], [119.05773966882006, 272.1037757707317, 143.72441434965228, 0.0, 2.8884750675140013e-05, 0.0], [130.58971760712444, 130.58971760712444, 270.03776877802113, 0.0, 0.0, 0.0], [0.0, 1.2397756179815757e-05, 0.0, 61.68914230696811, -1.107776312518466e-07, 6.198825787164698e-06], [1.239775617804766e-05, 0.0, 0.0, 1.1077763125177394e-07, 61.68914230696811, 6.198931149457547e-06], [1.179279169585155, -1.179279169586968, 0.0, 5.499980269985002e-07, -5.210119543115683e-09, 117.92163568113342]], 'compliance_tensor': [[5.3, -1.3, -2.0, 0.0, -0.0, 0.0], [-1.3, 5.3, -2.0, -0.0, 0.0, 0.0], [-2.0, -2.0, 5.8, -0.0, -0.0, 0.0], [0.0, -0.0, -0.0, 16.2, 0.0, -0.0], [-0.0, 0.0, -0.0, 0.0, 16.2, -0.0], [0.0, 0.0, 0.0, -0.0, -0.0, 8.5]], 'warnings': ['Contains a rare earth element'], 'nsites': 6}",0.0,74.0,178.0,0.32,0.32,195.36
377,mp-12388,Er3Al3NiGe2,"{'Er': 3.0, 'Al': 3.0, 'Ni': 1.0, 'Ge': 2.0}",0.1352265478571215,7.641166504720081,"{'G_Reuss': 56.0, 'G_VRH': 59.0, 'G_Voigt': 62.0, 'G_Voigt_Reuss_Hill': 59.0, 'K_Reuss': 84.0, 'K_VRH': 85.0, 'K_Voigt': 85.0, 'K_Voigt_Reuss_Hill': 85.0, 'elastic_anisotropy': 0.59, 'elastic_tensor': [[137.0, 52.0, 54.0, 0.0, 0.0, 0.0], [52.0, 137.0, 54.0, 0.0, 0.0, 0.0], [54.0, 54.0, 172.0, 0.0, 0.0, 0.0], [0.0, 0.0, 0.0, 88.0, 0.0, 0.0], [0.0, 0.0, 0.0, 0.0, 88.0, 0.0], [0.0, 0.0, 0.0, 0.0, 0.0, 42.0]], 'homogeneous_poisson': 0.22, 'poisson_ratio': 0.22, 'universal_anisotropy': 0.59, 'elastic_tensor_original': [[136.0989833790923, 51.85569600173973, 56.02230206711154, 0.0, 0.0, -8.600019536855954e-06], [53.722930709378346, 136.01457381143413, 56.63364772168331, 0.0, 0.0, -1.1399956182881168e-05], [52.66401218440994, 52.664023784455, 171.6329119440736, 0.0, 0.0, -4.400017092789996e-06], [0.0, 0.0, 0.0, 87.5181412013509, -7.30000567688789e-06, 0.0], [0.0, 0.0, 0.0, 0.0, 87.67661017303372, 0.0], [-7.232942561429953e-06, 0.0, 0.0, 0.0, 0.0, 43.22436067114969]], 'compliance_tensor': [[9.133902756184119, -2.6504784984169323, -2.0585831111769854, 0.0, 0.0, 1.5284203601739084e-06], [-2.6504784984169323, 9.133899835556996, -2.058582782054031, 0.0, 0.0, 1.5284201146431199e-06], [-2.058583111176986, -2.058582782054031, 7.133649624301973, 0.0, 0.0, -3.4447272113418477e-07], [0.0, 0.0, 0.0, 11.415866196259863, 9.551363515124753e-07, 0.0], [0.0, 0.0, 0.0, 9.551363515124753e-07, 11.415868021410477, 0.0], [1.5284203610456992e-06, 1.5284201148570823e-06, -3.4447272147892755e-07, 0.0, 0.0, 23.56875958857499]], 'warnings': ['Structure contains a rare earth element'], 'nsites': 9}",0.0,59.0,85.0,0.59,0.22,143.96