,mp_id,Formula,Composition,IPF,Density,Elastic_Tensor,E_above_Hull,G_VRH,K_VRH,Elastic_Anisotropy,poisson_ratio,Y_Modulus
302,mp-558838,NiPtF6,"{'Ni': 1.0, 'Pt': 1.0, 'F': 6.0}",0.12455196831193878,5.994356029245242,"{'G_Reuss': 22.0, 'G_VRH': 27.0, 'G_Voigt': 33.0, 'G_Voigt_Reuss_Hill': 27.0, 'K_Reuss': 38.0, 'K_VRH': 41.0, 'K_Voigt': 43.0, 'K_Voigt_Reuss_Hill': 41.0, 'elastic_anisotropy': 2.76, 'elastic_tensor': [[68.0, 9.0, 37.0, -20.0, -0.0, 0.0], [9.0, 68.0, 37.0, 20.0, 0.0, 0.0], [37.0, 37.0, 88.0, 0.0, 0.0, 0.0], [-20.0, 20.0, 0.0, 45.0, 0.0, 0.0], [-0.0, 0.0, 0.0, 0.0, 45.0, -20.0], [0.0, 0.0, 0.0, 0.0, -20.0, 30.0]], 'homogeneous_poisson': 0.22, 'poisson_ratio': 0.22, 'universal_anisotropy': 2.76, 'elastic_tensor_original': [[66.72989653840217, 8.199594658122063, 37.33613499843824, 20.159363608919648, -0.401363213621112, 0.9134119265204228], [8.682568863241674, 68.78441955894152, 38.61754899173219, -21.151783166440282, 0.010279348952771918, 0.078532654152923], [36.945023390600866, 36.9450201710751, 88.00852637295924, 0.0, 0.0, 1.4704385907166705e-06], [20.03693823747164, -20.12024238229635, 0.2626106315704119, 44.931094324269495, -0.10658209100664733, -0.38910756659858137], [0.3599414645472858, -0.05299048314896621, 0.3107224930220909, -0.13145389562519594, 44.76966720818299, 20.155577185464765], [-0.03145482760338712, -0.03878047972224283, -0.07820697747185985, -0.2797660576686589, 20.32474237148909, 29.465495983370886]], 'compliance_tensor': [[23.6, -1.0, -9.6, 11.1, 0.1, 0.0], [-1.0, 23.6, -9.6, -11.1, -0.1, 0.0], [-9.6, -9.6, 19.5, -0.0, 0.0, -0.0], [11.1, -11.1, -0.0, 32.4, 0.0, -0.2], [0.1, -0.1, 0.0, 0.0, 32.4, 22.2], [0.0, 0.0, -0.0, -0.2, 22.2, 49.1]], 'warnings': [], 'nsites': 8}",0.0,27.0,41.0,2.76,0.22,65.88
303,mp-570845,Zn(GaNi)3,"{'Zn': 1.0, 'Ga': 3.0, 'Ni': 3.0}",0.14305640483294543,7.951690430786198,"{'G_Reuss': 62.0, 'G_VRH': 63.0, 'G_Voigt': 64.0, 'G_Voigt_Reuss_Hill': 63.0, 'K_Reuss': 132.0, 'K_VRH': 132.0, 'K_Voigt': 132.0, 'K_Voigt_Reuss_Hill': 132.0, 'elastic_anisotropy': 0.16, 'elastic_tensor': [[201.0, 98.0, 98.0, 0.0, 0.0, 0.0], [98.0, 201.0, 98.0, 0.0, 0.0, 0.0], [98.0, 98.0, 201.0, 0.0, 0.0, 0.0], [0.0, 0.0, 0.0, 73.0, 0.0, 0.0], [0.0, 0.0, 0.0, 0.0, 73.0, 0.0], [0.0, 0.0, 0.0, 0.0, 0.0, 73.0]], 'homogeneous_poisson': 0.29, 'poisson_ratio': 0.29, 'universal_anisotropy': 0.16, 'elastic_tensor_original': [[201.33945340821222, 98.6102167617328, 98.6102167617328, 0.0, 0.0, 0.0], [98.18331341491728, 199.65108482214185, 98.18356750337111, -0.0002731250581822592, -0.0001381561981637958, 0.0005742278576272973], [98.32862376673128, 98.32869462223005, 200.57659883532983, 0.00019531376377228995, 2.9212354751960833e-05, 2.239547032116695e-05], [0.0010951069590441878, 0.0011356069698588843, 0.0012306703285721095, 73.2261873670486, 0.0, 0.0], [-0.4647518880823418, 0.005379020769459855, 0.4756410669896039, 0.0, 73.22589545163733, 0.0], [0.0003202767521775308, 0.0003107234162923022, 0.00024723006600879736, 0.0, 0.0, 73.22588346696746]], 'compliance_tensor': [[7.4, -2.4, -2.4, -0.0, -0.0, 0.0], [-2.4, 7.4, -2.4, 0.0, -0.0, -0.0], [-2.4, -2.4, 7.4, 0.0, 0.0, -0.0], [-0.0, 0.0, 0.0, 13.7, 0.0, -0.0], [-0.0, -0.0, 0.0, 0.0, 13.7, -0.0], [0.0, -0.0, -0.0, -0.0, -0.0, 13.7]], 'warnings': [], 'nsites': 56}",0.0,63.0,132.0,0.16,0.29,162.54
304,mp-571428,MgNi3B2,"{'Mg': 1.0, 'Ni': 3.0, 'B': 2.0}",0.13858761156284471,6.130455256500219,"{'G_Reuss': 80.0, 'G_VRH': 86.0, 'G_Voigt': 93.0, 'G_Voigt_Reuss_Hill': 86.0, 'K_Reuss': 191.0, 'K_VRH': 192.0, 'K_Voigt': 192.0, 'K_Voigt_Reuss_Hill': 192.0, 'elastic_anisotropy': 0.82, 'elastic_tensor': [[327.0, 134.0, 93.0, 0.0, 0.0, 0.0], [134.0, 327.0, 93.0, 0.0, 0.0, 0.0], [93.0, 93.0, 433.0, 0.0, 0.0, 0.0], [0.0, 0.0, 0.0, 56.0, 0.0, 0.0], [0.0, 0.0, 0.0, 0.0, 56.0, 0.0], [0.0, 0.0, 0.0, 0.0, 0.0, 96.0]], 'homogeneous_poisson': 0.3, 'poisson_ratio': 0.3, 'universal_anisotropy': 0.82, 'elastic_tensor_original': [[328.68151994422965, 134.0969830902081, 93.34332273819086, 0.0, 0.0, 0.0], [132.9831831403958, 327.5384726842551, 93.06306069232076, 0.0, 0.0, 0.0], [93.67880969386513, 93.67875543613299, 432.7588251665879, 0.0, 0.0, 0.0], [-0.0879705512784518, -0.06699349794811967, -0.07637863092944419, 56.27109190199347, 0.0, 0.0], [0.010809734707167921, 0.010631551217335994, 0.012749760600342958, 0.0, 56.28443509725726, 0.0], [-0.034742452063356424, -0.010131968847913031, -0.03623790143418601, 0.0, 0.0, 95.44888539114594]], 'compliance_tensor': [[3.8, -1.4, -0.5, 0.0, 0.0, -0.0], [-1.4, 3.8, -0.5, -0.0, -0.0, -0.0], [-0.5, -0.5, 2.5, 0.0, 0.0, 0.0], [-0.0, -0.0, 0.0, 17.8, -0.0, -0.0], [0.0, -0.0, 0.0, -0.0, 17.8, -0.0], [-0.0, -0.0, 0.0, -0.0, -0.0, 10.4]], 'warnings': [], 'nsites': 18}",0.0,86.0,192.0,0.82,0.3,223.6
305,mp-5723,ZrAlNi,"{'Zr': 1.0, 'Al': 1.0, 'Ni': 1.0}",0.1169162917558583,6.078613498043177,"{'G_Reuss': 66.0, 'G_VRH': 71.0, 'G_Voigt': 76.0, 'G_Voigt_Reuss_Hill': 71.0, 'K_Reuss': 138.0, 'K_VRH': 138.0, 'K_Voigt': 138.0, 'K_Voigt_Reuss_Hill': 138.0, 'elastic_anisotropy': 0.69, 'elastic_tensor': [[228.0, 73.0, 115.0, 0.0, 0.0, 0.0], [73.0, 228.0, 115.0, 0.0, 0.0, 0.0], [115.0, 115.0, 186.0, 0.0, 0.0, 0.0], [0.0, 0.0, 0.0, 94.0, 0.0, 0.0], [0.0, 0.0, 0.0, 0.0, 94.0, 0.0], [0.0, 0.0, 0.0, 0.0, 0.0, 77.0]], 'homogeneous_poisson': 0.28, 'poisson_ratio': 0.28, 'universal_anisotropy': 0.69, 'elastic_tensor_original': [[229.19355882797788, 72.54575399375729, 114.99211590498733, 0.0, 0.0, 0.0], [71.21102734419985, 227.86626029245733, 113.32235977267648, 0.0, 0.0, 0.0], [115.04968688270137, 115.04967610224668, 185.93580725738425, 0.0, 0.0, 0.0], [8.451010238625879e-05, 0.00015700389598746184, 0.00015784712052740226, 93.61783139741557, 0.0, 0.0], [-6.387632067526433e-05, -0.00036985605137119414, -9.792291110045933e-05, 0.0, 93.71639370293845, 0.0], [-0.0003359997218415392, -0.0005542061936396585, -0.0006506160758258414, 0.0, 0.0, 76.62945513543546]], 'compliance_tensor': [[6.4, -0.1, -3.9, 0.0, 0.0, -0.0], [-0.1, 6.4, -3.9, 0.0, 0.0, -0.0], [-3.9, -3.9, 10.2, -0.0, -0.0, 0.0], [0.0, 0.0, -0.0, 10.7, -0.0, 0.0], [0.0, 0.0, -0.0, -0.0, 10.7, -0.0], [-0.0, -0.0, 0.0, 0.0, -0.0, 12.9]], 'warnings': [], 'nsites': 9}",0.0,71.0,138.0,0.69,0.28,181.76
306,mp-754185,Y2MgNi2,"{'Y': 2.0, 'Mg': 1.0, 'Ni': 2.0}",0.1526354920678664,5.230369969458442,"{'G_Reuss': 26.0, 'G_VRH': 28.0, 'G_Voigt': 29.0, 'G_Voigt_Reuss_Hill': 28.0, 'K_Reuss': 70.0, 'K_VRH': 70.0, 'K_Voigt': 71.0, 'K_Voigt_Reuss_Hill': 70.0, 'elastic_anisotropy': 0.68, 'elastic_tensor': [[97.0, 61.0, 61.0, 0.0, 0.0, 0.0], [61.0, 93.0, 54.0, 0.0, 0.0, 0.0], [61.0, 54.0, 93.0, 0.0, 0.0, 0.0], [0.0, 0.0, 0.0, 37.0, 0.0, 0.0], [0.0, 0.0, 0.0, 0.0, 37.0, 0.0], [0.0, 0.0, 0.0, 0.0, 0.0, 37.0]], 'homogeneous_poisson': 0.33, 'poisson_ratio': 0.33, 'universal_anisotropy': 0.68, 'elastic_tensor_original': [[94.9801310537211, 55.575276105146905, 60.274889428144235, 0.0, 0.0, 0.0], [52.575977189478245, 92.00122144565891, 57.2864165644187, 0.0, 0.0, 0.0], [62.86806389277928, 62.86806389277928, 96.8210046607872, 0.0, 0.0, 0.0], [-0.00027496997713846917, -0.0002652566446130499, -0.000265346644605094, 36.90415471143859, 0.0, 0.0], [0.0002652566446118796, 0.0002749699771382498, 0.00026534664460502085, 0.0, 36.90416921810405, 0.0], [0.1588390173203993, -0.15901241066078628, -7.346666965516382e-06, 0.0, 0.0, 36.592360309711616]], 'compliance_tensor': [[21.4, -8.8, -8.8, -0.0, 0.0, 0.0], [-8.8, 19.7, -5.7, 0.0, 0.0, 0.0], [-8.8, -5.7, 19.7, 0.0, 0.0, -0.0], [-0.0, 0.0, 0.0, 27.3, 0.0, 0.0], [0.0, 0.0, 0.0, 0.0, 27.1, 0.0], [0.0, 0.0, -0.0, 0.0, 0.0, 27.1]], 'warnings': [], 'nsites': 10}",0.0,28.0,70.0,0.68,0.33,74.48
307,mp-8048,NdNi4B,"{'Nd': 1.0, 'Ni': 4.0, 'B': 1.0}",0.20456552124350194,8.385801996623528,"{'G_Reuss': 69.0, 'G_VRH': 69.0, 'G_Voigt': 70.0, 'G_Voigt_Reuss_Hill': 69.0, 'K_Reuss': 148.0, 'K_VRH': 148.0, 'K_Voigt': 148.0, 'K_Voigt_Reuss_Hill': 148.0, 'elastic_anisotropy': 0.08, 'elastic_tensor': [[241.0, 98.0, 95.0, 0.0, 0.0, 0.0], [98.0, 241.0, 95.0, 0.0, 0.0, 0.0], [95.0, 95.0, 273.0, 0.0, 0.0, 0.0], [0.0, 0.0, 0.0, 61.0, 0.0, 0.0], [0.0, 0.0, 0.0, 0.0, 61.0, 0.0], [0.0, 0.0, 0.0, 0.0, 0.0, 72.0]], 'homogeneous_poisson': 0.3, 'poisson_ratio': 0.3, 'universal_anisotropy': 0.08, 'elastic_tensor_original': [[238.11254844433498, 96.59109068579129, 95.55063191941855, 0.0, 0.0, 0.0], [100.9384400234922, 242.01455497765951, 99.791619854451, 0.0, 0.0, 0.0], [93.0974333460282, 93.09747634644064, 273.0210742874884, 0.0, 0.0, 0.0], [0.0, 0.0, 0.0, 61.36731155711543, 0.0, 0.0], [0.0, 0.0, 0.0, 0.0, 60.653734948187335, 0.0], [-1.6514780015833378e-07, 0.0, 0.0, 0.0, 0.0, 72.54223060960685]], 'compliance_tensor': [[5.32884301193742, -1.65480645847576, -1.2835834138794906, 0.0, 0.0, 1.2131507452722678e-08], [-1.65480645847576, 5.328841521896244, -1.2835832344228748, 0.0, 0.0, 1.2131505989162477e-08], [-1.2835834138794908, -1.2835832344228748, 4.559601752573801, 0.0, 0.0, -2.9221731085015276e-09], [0.0, 0.0, 0.0, 16.3906139005421, 1.8657228867643455e-08, 0.0], [0.0, 0.0, 0.0, 1.8657228867643455e-08, 16.39061619209908, 0.0], [1.2131507397979688e-08, 1.2131506165446976e-08, -2.9221731509640098e-09, 0.0, 0.0, 13.96729745078508]], 'warnings': ['Structure contains a rare earth element'], 'nsites': 12}",0.0,69.0,148.0,0.08,0.3,179.4
308,mp-862750,SrNiSn2,"{'Sr': 1.0, 'Ni': 1.0, 'Sn': 2.0}",0.15985897344149946,6.318377869704177,"{'G_Reuss': 26.0, 'G_VRH': 27.0, 'G_Voigt': 27.0, 'G_Voigt_Reuss_Hill': 27.0, 'K_Reuss': 55.0, 'K_VRH': 56.0, 'K_Voigt': 58.0, 'K_Voigt_Reuss_Hill': 56.0, 'elastic_anisotropy': 0.36, 'elastic_tensor': [[80.0, 41.0, 24.0, 0.0, 0.0, 0.0], [41.0, 94.0, 55.0, 0.0, 0.0, 0.0], [24.0, 55.0, 106.0, 0.0, 0.0, 0.0], [0.0, 0.0, 0.0, 33.0, 0.0, 0.0], [0.0, 0.0, 0.0, 0.0, 28.0, 0.0], [0.0, 0.0, 0.0, 0.0, 0.0, 23.0]], 'homogeneous_poisson': 0.3, 'poisson_ratio': 0.3, 'universal_anisotropy': 0.36, 'elastic_tensor_original': [[80.4912528070764, 39.49010100300585, 23.83606470950008, 0.0, 0.0, 0.0], [41.84384960593442, 93.56085475090622, 55.4976800286745, 0.0, 0.0, 0.0], [23.906140265620728, 54.42015834362977, 105.68810226670486, 0.0, 0.0, 0.0], [-0.17892704232607712, -0.16152136557593225, -0.18179285790883265, 33.24066287102442, 0.0, 0.0], [-0.00013259686873523773, -1.867029212600093e-05, -0.000124103529704764, 0.0, 28.009219450215195, 0.0], [0.023794521363627516, 0.03863679185685521, 0.02410443099535353, 0.0, 0.0, 22.83299697104062]], 'compliance_tensor': [[15.9, -6.9, 0.0, 0.0, 0.0, 0.0], [-6.9, 18.4, -8.0, 0.0, 0.0, -0.0], [0.0, -8.0, 13.6, 0.0, 0.0, 0.0], [0.0, 0.0, 0.0, 30.1, 0.0, 0.0], [0.0, 0.0, 0.0, 0.0, 35.7, 0.0], [0.0, -0.0, 0.0, 0.0, 0.0, 43.8]], 'warnings': [], 'nsites': 8}",0.0,27.0,56.0,0.36,0.3,70.2
309,mp-862849,Ac2NiIr,"{'Ac': 2.0, 'Ni': 1.0, 'Ir': 1.0}",0.20135618649204579,11.592813566776615,"{'G_Reuss': 17.0, 'G_VRH': 20.0, 'G_Voigt': 23.0, 'G_Voigt_Reuss_Hill': 20.0, 'K_Reuss': 87.0, 'K_VRH': 87.0, 'K_Voigt': 87.0, 'K_Voigt_Reuss_Hill': 87.0, 'elastic_anisotropy': 1.91, 'elastic_tensor': [[140.0, 60.0, 60.0, 0.0, 0.0, 0.0], [60.0, 140.0, 60.0, 0.0, 0.0, 0.0], [60.0, 60.0, 140.0, 0.0, 0.0, 0.0], [0.0, 0.0, 0.0, 12.0, 0.0, 0.0], [0.0, 0.0, 0.0, 0.0, 12.0, 0.0], [0.0, 0.0, 0.0, 0.0, 0.0, 12.0]], 'homogeneous_poisson': 0.39, 'poisson_ratio': 0.39, 'universal_anisotropy': 1.91, 'elastic_tensor_original': [[140.36846756835445, 60.21015084606662, 60.21015084606662, 0.0, 0.0, 0.0], [60.21015084606662, 140.36846756835448, 60.21015084606665, 0.0, 0.0, 0.0], [60.21015084606664, 60.21015084606662, 140.36846756835445, 0.0, 0.0, 0.0], [0.0, 0.0, 0.0, 12.189208574600691, -0.07136394469208666, 0.0], [0.0, 0.0, 0.0, 0.07136394469208616, 12.18920857460069, 0.0], [0.0, 0.0, 0.0, 0.0, 0.07136224468387482, 12.189208074598273]], 'compliance_tensor': [[9.6, -2.9, -2.9, -0.0, 0.0, -0.0], [-2.9, 9.6, -2.9, 0.0, -0.0, 0.0], [-2.9, -2.9, 9.6, 0.0, 0.0, 0.0], [-0.0, 0.0, 0.0, 82.0, 0.0, 0.0], [0.0, -0.0, 0.0, 0.0, 82.0, 0.0], [-0.0, 0.0, 0.0, 0.0, 0.0, 82.0]], 'warnings': ['Contains a rare earth element'], 'nsites': 4}",0.0,20.0,87.0,1.91,0.39,55.60000000000001
310,mp-863713,Pm2NiIr,"{'Pm': 2.0, 'Ni': 1.0, 'Ir': 1.0}",0.1758431286576668,10.508400482306383,"{'G_Reuss': 31.0, 'G_VRH': 31.0, 'G_Voigt': 31.0, 'G_Voigt_Reuss_Hill': 31.0, 'K_Reuss': 115.0, 'K_VRH': 115.0, 'K_Voigt': 115.0, 'K_Voigt_Reuss_Hill': 115.0, 'elastic_anisotropy': 0.06, 'elastic_tensor': [[162.0, 92.0, 92.0, 0.0, 0.0, 0.0], [92.0, 162.0, 92.0, 0.0, 0.0, 0.0], [92.0, 92.0, 162.0, 0.0, 0.0, 0.0], [0.0, 0.0, 0.0, 28.0, 0.0, 0.0], [0.0, 0.0, 0.0, 0.0, 28.0, 0.0], [0.0, 0.0, 0.0, 0.0, 0.0, 28.0]], 'homogeneous_poisson': 0.38, 'poisson_ratio': 0.38, 'universal_anisotropy': 0.06, 'elastic_tensor_original': [[162.15655833828646, 91.53993744397278, 91.53993744397278, 0.0, 0.0, 0.0], [91.53993744397278, 162.15655833828643, 91.53993744397283, 0.0, 0.0, 0.0], [91.53993744397282, 91.53993744397278, 162.15655833828646, 0.0, 0.0, 0.0], [0.0, 0.0, 0.0, 28.16728175084179, -0.5515843440769913, 0.0], [0.0, 0.0, 0.0, 0.5515843440769898, 28.1672817508418, 0.0], [0.0, 0.0, 0.0, 0.0, 0.5515851440770533, 28.16727815084151]], 'compliance_tensor': [[10.4, -3.8, -3.8, -0.0, 0.0, -0.0], [-3.8, 10.4, -3.8, 0.0, -0.0, 0.0], [-3.8, -3.8, 10.4, 0.0, 0.0, 0.0], [-0.0, 0.0, 0.0, 35.5, 0.0, 0.0], [0.0, -0.0, 0.0, 0.0, 35.5, 0.0], [-0.0, 0.0, 0.0, 0.0, 0.0, 35.5]], 'warnings': ['Contains a rare earth element'], 'nsites': 4}",0.0,31.0,115.0,0.06,0.38,85.55999999999999
311,mp-863717,Pm2NiRu,"{'Pm': 2.0, 'Ni': 1.0, 'Ru': 1.0}",0.16952774566054843,8.814162794229794,"{'G_Reuss': 27.0, 'G_VRH': 27.0, 'G_Voigt': 27.0, 'G_Voigt_Reuss_Hill': 27.0, 'K_Reuss': 29.0, 'K_VRH': 29.0, 'K_Voigt': 29.0, 'K_Voigt_Reuss_Hill': 29.0, 'elastic_anisotropy': 0.0, 'elastic_tensor': [[66.0, 11.0, 11.0, 0.0, 0.0, 0.0], [11.0, 66.0, 11.0, 0.0, 0.0, 0.0], [11.0, 11.0, 66.0, 0.0, 0.0, 0.0], [0.0, 0.0, 0.0, 26.0, 0.0, 0.0], [0.0, 0.0, 0.0, 0.0, 26.0, 0.0], [0.0, 0.0, 0.0, 0.0, 0.0, 26.0]], 'homogeneous_poisson': 0.15, 'poisson_ratio': 0.15, 'universal_anisotropy': 0.0, 'elastic_tensor_original': [[65.65012208217955, 11.22633419850737, 11.056587267565568, 0.03972943487373801, -1.0630647270498201, 1.0589956054146856], [11.226324357699106, 65.65012938700904, 11.056585200335439, -1.0632185377536028, -0.039725747221760956, -1.059117150157282], [11.056574787777711, 11.226331573119408, 65.65012572648985, -1.0591377685153822, -1.0630367068792428, -0.03976552771252905], [0.10954595441082483, 0.21070462821044386, 0.2072096842158945, 26.245494379324843, -1.8558948549607195e-05, 2.6202172164852857e-05], [-0.2107052488281707, -0.10954602263247117, -0.20721042480535448, -1.8282475293551108e-05, 25.896025508766723, -2.567413098292793e-05], [-3.738242911177674e-05, -3.7382443958177196e-05, 0.0, 2.6205181129642844e-05, -2.6192209365116416e-05, 26.070760298105412]], 'compliance_tensor': [[16.0, -2.3, -2.3, -0.0, -0.0, 0.0], [-2.3, 16.0, -2.3, 0.0, 0.0, 0.0], [-2.3, -2.3, 16.0, 0.0, -0.0, -0.0], [-0.0, 0.0, 0.0, 38.4, 0.0, -0.0], [-0.0, 0.0, -0.0, 0.0, 38.4, 0.0], [0.0, 0.0, -0.0, -0.0, 0.0, 38.4]], 'warnings': ['Contains a rare earth element'], 'nsites': 4}",0.0,27.0,29.0,0.0,0.15,62.099999999999994
312,mp-865235,Ti6Al16Ni7,"{'Ti': 6.0, 'Al': 16.0, 'Ni': 7.0}",0.11683089848820409,4.564324365433942,"{'G_Reuss': 90.0, 'G_VRH': 91.0, 'G_Voigt': 91.0, 'G_Voigt_Reuss_Hill': 91.0, 'K_Reuss': 130.0, 'K_VRH': 130.0, 'K_Voigt': 130.0, 'K_Voigt_Reuss_Hill': 130.0, 'elastic_anisotropy': 0.09, 'elastic_tensor': [[232.0, 79.0, 79.0, 0.0, 0.0, 0.0], [79.0, 232.0, 79.0, 0.0, 0.0, 0.0], [79.0, 79.0, 232.0, 0.0, 0.0, 0.0], [0.0, 0.0, 0.0, 101.0, 0.0, 0.0], [0.0, 0.0, 0.0, 0.0, 101.0, 0.0], [0.0, 0.0, 0.0, 0.0, 0.0, 101.0]], 'homogeneous_poisson': 0.22, 'poisson_ratio': 0.22, 'universal_anisotropy': 0.09, 'elastic_tensor_original': [[231.84485631618318, 78.93353975994438, 78.90026175949924, -1.5921694648732083e-05, 2.571483009218989e-05, -7.15329981128721e-05], [79.71580695107502, 232.34169803469246, 79.7068155450906, -6.836316256935447e-05, -4.896855759320569e-06, 1.1465999906161394e-05], [77.27147352593744, 77.27161309413789, 231.33109284284052, 6.945230048087755e-05, -1.0809566782138845e-05, 0.00012002124965704247], [-0.004925829685839957, -0.4247425530689326, 0.41499018293234885, 101.27091454951727, -9.759645054354215e-07, 1.0209116624440274e-08], [0.13331187403713654, -0.006322901491804184, -0.14930412953147185, 9.798730698605518e-07, 101.27312779351979, -4.10100545311745e-06], [0.0011193735629637543, 0.0051290775936601125, 0.0013967890843893088, 2.7463299577309015e-08, -2.4661776642733073e-07, 101.27113359642647]], 'compliance_tensor': [[5.2, -1.3, -1.3, 0.0, -0.0, 0.0], [-1.3, 5.2, -1.3, -0.0, 0.0, 0.0], [-1.3, -1.3, 5.2, -0.0, -0.0, -0.0], [0.0, -0.0, -0.0, 9.9, 0.0, -0.0], [-0.0, 0.0, -0.0, 0.0, 9.9, -0.0], [0.0, 0.0, -0.0, -0.0, -0.0, 9.9]], 'warnings': [], 'nsites': 29}",0.0,91.0,130.0,0.09,0.22,222.04
313,mp-865591,Ti2NiMo,"{'Ti': 2.0, 'Ni': 1.0, 'Mo': 1.0}",0.15092416784412746,7.112101516720644,"{'G_Reuss': 78.0, 'G_VRH': 79.0, 'G_Voigt': 79.0, 'G_Voigt_Reuss_Hill': 79.0, 'K_Reuss': 171.0, 'K_VRH': 171.0, 'K_Voigt': 171.0, 'K_Voigt_Reuss_Hill': 171.0, 'elastic_anisotropy': 0.06, 'elastic_tensor': [[291.0, 110.0, 110.0, 0.0, 0.0, 0.0], [110.0, 291.0, 110.0, 0.0, 0.0, 0.0], [110.0, 110.0, 291.0, 0.0, 0.0, 0.0], [0.0, 0.0, 0.0, 72.0, 0.0, 0.0], [0.0, 0.0, 0.0, 0.0, 72.0, 0.0], [0.0, 0.0, 0.0, 0.0, 0.0, 72.0]], 'homogeneous_poisson': 0.3, 'poisson_ratio': 0.3, 'universal_anisotropy': 0.06, 'elastic_tensor_original': [[292.45205972715587, 110.6749565589935, 110.67495220822082, -2.7969252681185555e-05, -3.4625734322872726e-05, 1.2691424334903555e-05], [110.14348622873065, 290.7652546516601, 110.14286729623585, 2.3157338241411698e-05, 1.806472879265103e-05, -3.7352485838744585e-05], [109.95708930189541, 109.9576750722799, 290.57919362199965, 1.2290431464922397e-05, -1.7443189844180238e-05, 9.499521089853562e-05], [-2.8009970688943317e-05, -3.0379968209708132e-05, -3.067663456625406e-05, 71.8252673981043, 0.0, 0.0], [-8.066658224926286e-06, -1.1526654603965833e-05, -6.7466596068299385e-06, 0.0, 71.82528708141706, 0.0], [6.890992789344791e-05, 6.641659716782518e-05, 7.744325229815066e-05, 0.0, 0.0, 71.82526139477727]], 'compliance_tensor': [[4.3, -1.2, -1.2, 0.0, 0.0, 0.0], [-1.2, 4.3, -1.2, 0.0, 0.0, 0.0], [-1.2, -1.2, 4.3, 0.0, 0.0, 0.0], [0.0, 0.0, 0.0, 13.9, 0.0, 0.0], [0.0, 0.0, 0.0, 0.0, 13.9, 0.0], [0.0, 0.0, 0.0, 0.0, 0.0, 13.9]], 'warnings': [], 'nsites': 4}",0.0,79.0,171.0,0.06,0.3,205.4
314,mp-10076,Hf3(NiGe)4,"{'Hf': 3.0, 'Ni': 4.0, 'Ge': 4.0}",0.13434028389235625,10.68058573758717,"{'G_Reuss': 87.0, 'G_VRH': 87.0, 'G_Voigt': 88.0, 'G_Voigt_Reuss_Hill': 87.0, 'K_Reuss': 159.0, 'K_VRH': 160.0, 'K_Voigt': 160.0, 'K_Voigt_Reuss_Hill': 160.0, 'elastic_anisotropy': 0.1, 'elastic_tensor': [[253.0, 94.0, 112.0, 0.0, 0.0, 0.0], [94.0, 302.0, 98.0, 0.0, 0.0, 0.0], [112.0, 98.0, 276.0, 0.0, 0.0, 0.0], [0.0, 0.0, 0.0, 78.0, 0.0, 0.0], [0.0, 0.0, 0.0, 0.0, 106.0, 0.0], [0.0, 0.0, 0.0, 0.0, 0.0, 81.0]], 'homogeneous_poisson': 0.27, 'poisson_ratio': 0.27, 'universal_anisotropy': 0.1, 'elastic_tensor_original': [[276.1746387312122, 112.4943800186217, 97.83074512298943, 0.0, 0.0, 0.0], [111.40908011131471, 253.21617985144462, 93.27134445570726, 0.0, 0.0, 0.0], [97.5736137102683, 94.92390557521061, 302.4990839445427, 0.0, 0.0, 0.0], [-0.006342547004055349, -0.020973450594146993, 0.01841092373752364, 81.10335807207322, 0.0, 0.0], [0.013882399534837402, 0.00991556300035437, 0.003365178876719345, 0.0, 77.82232045165486, 0.0], [-2.1306701866980438e-05, -2.823671332063724e-05, -5.673342706984488e-06, 0.0, 0.0, 106.02478777291634]], 'compliance_tensor': [[5.1, -1.0, -1.7, 0.0, 0.0, 0.0], [-1.0, 3.9, -1.0, 0.0, -0.0, 0.0], [-1.7, -1.0, 4.7, 0.0, 0.0, 0.0], [0.0, 0.0, 0.0, 12.8, 0.0, 0.0], [0.0, -0.0, 0.0, 0.0, 9.4, 0.0], [0.0, 0.0, 0.0, 0.0, 0.0, 12.3]], 'warnings': [], 'nsites': 11}",0.0,87.0,160.0,0.1,0.27,220.98