,mp_id,Formula,Composition,IPF,Density,Elastic_Tensor,E_above_Hull,G_VRH,K_VRH,Elastic_Anisotropy,poisson_ratio,Y_Modulus
172,mp-20708,In2Ni3S2,"{'In': 2.0, 'Ni': 3.0, 'S': 2.0}",0.15321805857694734,6.731043906349872,"{'G_Reuss': 31.0, 'G_VRH': 33.0, 'G_Voigt': 35.0, 'G_Voigt_Reuss_Hill': 33.0, 'K_Reuss': 72.0, 'K_VRH': 72.0, 'K_Voigt': 72.0, 'K_Voigt_Reuss_Hill': 72.0, 'elastic_anisotropy': 0.51, 'elastic_tensor': [[118.0, 56.0, 44.0, -10.0, 0.0, 0.0], [56.0, 118.0, 44.0, 10.0, 0.0, 0.0], [44.0, 44.0, 127.0, 0.0, 0.0, 0.0], [-10.0, 10.0, 0.0, 34.0, 0.0, 0.0], [0.0, 0.0, 0.0, 0.0, 34.0, -10.0], [0.0, 0.0, 0.0, 0.0, -10.0, 31.0]], 'homogeneous_poisson': 0.3, 'poisson_ratio': 0.3, 'universal_anisotropy': 0.51, 'elastic_tensor_original': [[118.95768078234484, 55.11463610781432, 43.178580585723346, 12.406888166037652, 0.0, 0.0], [55.4657645944399, 118.51586140545949, 43.13603580496273, -12.263904072210773, 0.0, 0.0], [45.03322358079689, 45.0331967040737, 127.2039845744946, 0.0, 0.0, 0.0], [9.34832294863531, -9.399409848403852, 0.3375946308783988, 34.48359455044592, 0.0, 0.0], [-0.0001674367678049033, -0.0003098368538206233, -0.0002714634973080885, 9.742339218106642e-05, 34.443827308822115, 9.366325300979161], [0.02508610750676347, -0.15455838119451065, -0.08146966352164807, 0.12653852497371396, 9.875917712075998, 30.80228956923142]], 'compliance_tensor': [[12.3, -5.4, -2.4, 5.3, -0.0, -0.0], [-5.4, 12.3, -2.4, -5.3, -0.0, -0.0], [-2.4, -2.4, 9.5, -0.0, 0.0, 0.0], [5.3, -5.3, -0.0, 32.1, -0.0, -0.0], [-0.0, -0.0, 0.0, -0.0, 32.1, 10.5], [-0.0, -0.0, 0.0, -0.0, 10.5, 35.4]], 'warnings': [], 'nsites': 7}",0.0,33.0,72.0,0.51,0.3,85.8
173,mp-20956,Gd(SiNi)2,"{'Gd': 1.0, 'Si': 2.0, 'Ni': 2.0}",0.13161381137625416,7.28980631379689,"{'G_Reuss': 71.0, 'G_VRH': 73.0, 'G_Voigt': 75.0, 'G_Voigt_Reuss_Hill': 73.0, 'K_Reuss': 131.0, 'K_VRH': 132.0, 'K_Voigt': 133.0, 'K_Voigt_Reuss_Hill': 132.0, 'elastic_anisotropy': 0.33, 'elastic_tensor': [[249.0, 80.0, 88.0, 0.0, 0.0, 0.0], [80.0, 249.0, 88.0, 0.0, 0.0, 0.0], [88.0, 88.0, 186.0, 0.0, 0.0, 0.0], [0.0, 0.0, 0.0, 91.0, 0.0, 0.0], [0.0, 0.0, 0.0, 0.0, 91.0, 0.0], [0.0, 0.0, 0.0, 0.0, 0.0, 52.0]], 'homogeneous_poisson': 0.27, 'poisson_ratio': 0.27, 'universal_anisotropy': 0.33, 'elastic_tensor_original': [[248.61457197150241, 79.52389216319834, 104.37382109785277, 1.0799927392403942e-05, 1.0799927392403942e-05, 0.0], [79.52389216319482, 248.61457197149144, 104.37382109784814, 1.101782208862843e-05, -1.0799927390717349e-05, 0.0], [71.5158843430367, 71.5158843430367, 186.20627498315557, 1.939992761040687e-05, -1.939992761040687e-05, 0.0], [0.0, 1.9043247659917284e-07, 0.0, 91.21880839672882, 9.902544214284085e-07, -9.521645880038773e-08], [-1.9043247071138166e-07, 0.0, 0.0, -9.902544213530683e-07, 91.21880839672883, 9.52158999187824e-08], [0.515936845596252, -0.5159368455962521, 0.0, 0.0, 0.0, 51.5904818984492]], 'compliance_tensor': [[5.0, -0.9, -1.9, -0.0, 0.0, 0.0], [-0.9, 5.0, -1.9, 0.0, -0.0, 0.0], [-1.9, -1.9, 7.2, 0.0, 0.0, 0.0], [-0.0, 0.0, 0.0, 11.0, 0.0, 0.0], [0.0, -0.0, 0.0, 0.0, 11.0, 0.0], [0.0, 0.0, 0.0, 0.0, 0.0, 19.4]], 'warnings': ['Contains a rare earth element'], 'nsites': 5}",0.0,73.0,132.0,0.33,0.27,185.42000000000002
174,mp-27388,Ba(SiNi)2,"{'Ba': 1.0, 'Si': 2.0, 'Ni': 2.0}",0.18633163496448799,5.179847748836152,"{'G_Reuss': 30.0, 'G_VRH': 36.0, 'G_Voigt': 43.0, 'G_Voigt_Reuss_Hill': 36.0, 'K_Reuss': 48.0, 'K_VRH': 52.0, 'K_Voigt': 56.0, 'K_Voigt_Reuss_Hill': 52.0, 'elastic_anisotropy': 2.51, 'elastic_tensor': [[160.0, 4.0, 50.0, 0.0, 0.0, 0.0], [4.0, 72.0, 24.0, 0.0, 0.0, 0.0], [50.0, 24.0, 119.0, 0.0, 0.0, 0.0], [0.0, 0.0, 0.0, 39.0, 0.0, 0.0], [0.0, 0.0, 0.0, 0.0, 74.0, 0.0], [0.0, 0.0, 0.0, 0.0, 0.0, 13.0]], 'homogeneous_poisson': 0.22, 'poisson_ratio': 0.22, 'universal_anisotropy': 2.51, 'elastic_tensor_original': [[159.76835503717135, 2.454751617617663, 49.889742949387575, 0.0, 0.0, 0.0], [5.356178359445997, 72.41956300109878, 24.82756718627846, 0.0, 0.0, 0.0], [50.61898351251746, 23.26326871039965, 119.21960683921691, 0.0, 0.0, 0.0], [0.0, 0.0, 0.0, 38.608558516385315, 0.0, 0.0], [0.0, 0.0, 0.0, 0.0, 74.35427324122242, 0.0], [0.0, 0.0, 0.0, 0.0, 0.0, 12.717452377731039]], 'compliance_tensor': [[7.2, 0.7, -3.2, 0.0, -0.0, 0.0], [0.7, 14.9, -3.3, 0.0, 0.0, 0.0], [-3.2, -3.3, 10.4, 0.0, -0.0, 0.0], [0.0, 0.0, 0.0, 25.9, 0.0, -0.0], [-0.0, 0.0, -0.0, 0.0, 13.4, 0.0], [0.0, 0.0, 0.0, -0.0, 0.0, 78.6]], 'warnings': [], 'nsites': 10}",0.0,36.0,52.0,2.51,0.22,87.84
175,mp-30452,DyNiBi,"{'Dy': 1.0, 'Ni': 1.0, 'Bi': 1.0}",0.18132617596682404,10.444183693464055,"{'G_Reuss': 48.0, 'G_VRH': 49.0, 'G_Voigt': 50.0, 'G_Voigt_Reuss_Hill': 49.0, 'K_Reuss': 80.0, 'K_VRH': 80.0, 'K_Voigt': 80.0, 'K_Voigt_Reuss_Hill': 80.0, 'elastic_anisotropy': 0.2, 'elastic_tensor': [[163.0, 38.0, 38.0, 0.0, 0.0, 0.0], [38.0, 163.0, 38.0, 0.0, 0.0, 0.0], [38.0, 38.0, 163.0, 0.0, 0.0, 0.0], [0.0, 0.0, 0.0, 42.0, 0.0, 0.0], [0.0, 0.0, 0.0, 0.0, 42.0, 0.0], [0.0, 0.0, 0.0, 0.0, 0.0, 42.0]], 'homogeneous_poisson': 0.25, 'poisson_ratio': 0.25, 'universal_anisotropy': 0.2, 'elastic_tensor_original': [[162.9729680665579, 37.986769431365374, 37.94475196592504, 0.04097044658900103, -0.020580806430995094, -0.1295474423802738], [39.63313766228104, 164.45332089349833, 39.42437080057597, 0.05976509537991964, 0.036449966471987366, 0.02406812254021054], [37.84062931404097, 37.800483437853295, 162.7019238833159, -0.002087436552235618, -0.003083286120617963, 0.010420340995943413], [0.6527343809470375, 0.6575875003695606, 0.6669558455871502, 41.58867597899601, 0.013843600910861282, 0.0009044642961586224], [-0.11605458962507713, -0.11097484991540403, -0.13495423563274386, -0.013616983816481548, 41.6097116166746, 0.006165092646368943], [-0.17796628832972908, -0.1690132626832611, -0.17296276656200543, -0.004085437367576538, -0.0012773850994815853, 41.593283075344445]], 'compliance_tensor': [[6.7, -1.3, -1.3, 0.0, -0.0, 0.0], [-1.3, 6.7, -1.3, 0.0, 0.0, -0.0], [-1.3, -1.3, 6.7, 0.0, 0.0, 0.0], [0.0, 0.0, 0.0, 24.0, 0.0, 0.0], [-0.0, 0.0, 0.0, 0.0, 24.0, -0.0], [0.0, -0.0, 0.0, 0.0, -0.0, 24.0]], 'warnings': ['Contains a rare earth element'], 'nsites': 3}",0.0,49.0,80.0,0.2,0.25,122.5
176,mp-30805,SrNiSn3,"{'Sr': 1.0, 'Ni': 1.0, 'Sn': 3.0}",0.14699684612558545,6.623370386868097,"{'G_Reuss': 25.0, 'G_VRH': 26.0, 'G_Voigt': 26.0, 'G_Voigt_Reuss_Hill': 26.0, 'K_Reuss': 56.0, 'K_VRH': 56.0, 'K_Voigt': 56.0, 'K_Voigt_Reuss_Hill': 56.0, 'elastic_anisotropy': 0.08, 'elastic_tensor': [[91.0, 40.0, 38.0, 0.0, 0.0, 0.0], [40.0, 91.0, 38.0, 0.0, 0.0, 0.0], [38.0, 38.0, 92.0, 0.0, 0.0, 0.0], [0.0, 0.0, 0.0, 22.0, 0.0, 0.0], [0.0, 0.0, 0.0, 0.0, 22.0, 0.0], [0.0, 0.0, 0.0, 0.0, 0.0, 31.0]], 'homogeneous_poisson': 0.3, 'poisson_ratio': 0.3, 'universal_anisotropy': 0.08, 'elastic_tensor_original': [[91.40372328667985, 39.636992276210556, 38.27534017211766, 0.0, 0.0, 0.0], [39.63984793114372, 91.40666878799712, 38.2777496004675, 0.0, 0.0, 0.0], [38.665632470368124, 38.665632470368124, 91.6014702849953, 0.0, 0.0, 0.0], [-0.013521754471599253, -0.016951401947757874, -0.00675133550118414, 22.38726248762598, 0.0, 0.0], [-0.0002682130181325912, -0.0003505831358017934, 0.0008545997157934524, 0.0, 22.38633211493203, 0.0], [-0.00013831703969571858, -0.000136777037759931, -0.0001347803840802047, 0.0, 0.0, 31.39773658821369]], 'compliance_tensor': [[14.7, -4.6, -4.3, 0.0, 0.0, 0.0], [-4.6, 14.7, -4.3, -0.0, 0.0, 0.0], [-4.3, -4.3, 14.5, 0.0, 0.0, 0.0], [0.0, -0.0, 0.0, 44.7, 0.0, 0.0], [0.0, 0.0, 0.0, 0.0, 44.7, 0.0], [0.0, 0.0, 0.0, 0.0, 0.0, 31.8]], 'warnings': [], 'nsites': 5}",0.0,26.0,56.0,0.08,0.3,67.60000000000001
177,mp-32311,Re2NiO8,"{'Re': 2.0, 'Ni': 1.0, 'O': 8.0}",0.37681208258841825,4.875035907366613,"{'G_Reuss': 10.0, 'G_VRH': 14.0, 'G_Voigt': 17.0, 'G_Voigt_Reuss_Hill': 14.0, 'K_Reuss': 8.0, 'K_VRH': 15.0, 'K_Voigt': 22.0, 'K_Voigt_Reuss_Hill': 15.0, 'elastic_anisotropy': 4.73, 'elastic_tensor': [[68.0, 17.0, 4.0, 2.0, 1.0, 0.0], [17.0, 68.0, 4.0, -2.0, -1.0, 0.0], [4.0, 4.0, 9.0, 0.0, 0.0, 0.0], [2.0, -2.0, 0.0, 10.0, 0.0, -1.0], [1.0, -1.0, 0.0, 0.0, 10.0, 2.0], [0.0, 0.0, 0.0, -1.0, 2.0, 25.0]], 'homogeneous_poisson': 0.15, 'poisson_ratio': 0.15, 'universal_anisotropy': 4.73, 'elastic_tensor_original': [[68.769098529606, 16.316692904344997, 4.750511200351791, -3.711936291128871, -0.4801109098865605, -0.05099622882928429], [17.11897041757689, 68.39060051432071, 4.60703333393633, 3.4746353895407522, 0.6132018076673312, -0.21507280762542452], [3.8078953515385683, 3.807896209983918, 8.686621304965524, 0.0, 0.0, -7.50416346058528e-06], [-1.8018015273245291, 2.4187811383704183, 0.028589416052175104, 9.571969292464914, -0.0070426901384905835, 0.5606388904738833], [-0.7154305212152453, 0.3945845750207758, 0.016491320226785164, 0.022703455244565417, 9.76377085873042, -2.1356166260578613], [-0.178545712780687, -0.2868067234566298, 0.015641266219177545, 0.5221340330976788, -1.5285625259691595, 24.961593810470987]], 'compliance_tensor': [[16.2, -3.9, -6.0, -4.9, -1.1, 0.0], [-3.9, 16.2, -6.0, 4.9, 1.1, 0.0], [-6.0, -6.0, 121.0, 0.0, 0.0, -0.0], [-4.9, 4.9, 0.0, 105.9, 0.0, 2.3], [-1.1, 1.1, 0.0, 0.0, 105.9, -9.7], [0.0, 0.0, -0.0, 2.3, -9.7, 40.2]], 'warnings': [], 'nsites': 44}",0.0,14.0,15.0,4.73,0.15,32.199999999999996
178,mp-3398,Ho2Ni2Pb,"{'Ho': 2.0, 'Ni': 2.0, 'Pb': 1.0}",0.18057549437529155,10.454814371768895,"{'G_Reuss': 22.0, 'G_VRH': 28.0, 'G_Voigt': 33.0, 'G_Voigt_Reuss_Hill': 28.0, 'K_Reuss': 68.0, 'K_VRH': 68.0, 'K_Voigt': 68.0, 'K_Voigt_Reuss_Hill': 68.0, 'elastic_anisotropy': 2.41, 'elastic_tensor': [[83.0, 57.0, 69.0, 0.0, 0.0, 0.0], [57.0, 103.0, 36.0, 0.0, 0.0, 0.0], [69.0, 36.0, 103.0, 0.0, 0.0, 0.0], [0.0, 0.0, 0.0, 41.0, 0.0, 0.0], [0.0, 0.0, 0.0, 0.0, 35.0, 0.0], [0.0, 0.0, 0.0, 0.0, 0.0, 48.0]], 'homogeneous_poisson': 0.32, 'poisson_ratio': 0.32, 'universal_anisotropy': 2.41, 'elastic_tensor_original': [[83.07060601398126, 56.601018328714595, 68.1519734806068, 0.0, 0.0, 0.0], [57.28338639027897, 103.0510013567749, 39.15560203904466, 0.0, 0.0, 0.0], [69.85491821194749, 32.96333380901729, 102.87207439891935, 0.0, 0.0, 0.0], [0.0, 0.0, 0.0, 40.50129019141153, 0.0, 0.0], [0.0, 0.0, 0.0, 0.0, 34.900147696200776, 0.0], [0.0, 0.0, 0.0, 0.0, 0.0, 48.45068127662611]], 'compliance_tensor': [[40.1, -14.5, -21.8, 0.0, 0.0, -0.0], [-14.5, 16.3, 4.0, 0.0, 0.0, 0.0], [-21.8, 4.0, 22.9, 0.0, 0.0, 0.0], [0.0, 0.0, 0.0, 24.7, -0.0, 0.0], [0.0, 0.0, 0.0, -0.0, 28.7, 0.0], [-0.0, 0.0, 0.0, 0.0, 0.0, 20.6]], 'warnings': ['Contains a rare earth element'], 'nsites': 5}",0.0,28.0,68.0,2.41,0.32,73.92
179,mp-3679,NiSbS,"{'Ni': 1.0, 'Sb': 1.0, 'S': 1.0}",0.1329900638504512,6.7556196315895365,"{'G_Reuss': 50.0, 'G_VRH': 51.0, 'G_Voigt': 51.0, 'G_Voigt_Reuss_Hill': 51.0, 'K_Reuss': 96.0, 'K_VRH': 96.0, 'K_Voigt': 96.0, 'K_Voigt_Reuss_Hill': 96.0, 'elastic_anisotropy': 0.14, 'elastic_tensor': [[179.0, 54.0, 54.0, 0.0, 0.0, 0.0], [54.0, 179.0, 54.0, 0.0, 0.0, 0.0], [54.0, 54.0, 179.0, 0.0, 0.0, 0.0], [0.0, 0.0, 0.0, 44.0, 0.0, 0.0], [0.0, 0.0, 0.0, 0.0, 44.0, 0.0], [0.0, 0.0, 0.0, 0.0, 0.0, 44.0]], 'homogeneous_poisson': 0.27, 'poisson_ratio': 0.27, 'universal_anisotropy': 0.14, 'elastic_tensor_original': [[178.63910085726383, 54.504547336180934, 54.56786925609844, 0.0, 0.0, 0.0], [54.37472898848626, 178.45494920169176, 54.31709754629966, 0.0, 0.0, 0.0], [54.173131204673226, 54.29950038529279, 178.44556445771406, 0.0, 0.0, 0.0], [-0.0008075495907259812, -0.0007120162475414369, -0.000772802919327905, 44.44754376257759, 0.0, 0.0], [0.004371213744717761, 0.004931880330495607, 0.005295390231504169, 0.0, 44.25156306222786, 0.0], [-0.0006475058893931863, -0.0006999959710543374, -0.0006696926186410556, 0.0, 0.0, 44.44752235585711]], 'compliance_tensor': [[6.5, -1.5, -1.5, 0.0, 0.0, 0.0], [-1.5, 6.5, -1.5, 0.0, 0.0, 0.0], [-1.5, -1.5, 6.5, 0.0, 0.0, 0.0], [0.0, 0.0, 0.0, 22.5, 0.0, 0.0], [0.0, 0.0, 0.0, 0.0, 22.5, 0.0], [0.0, 0.0, 0.0, 0.0, 0.0, 22.5]], 'warnings': [], 'nsites': 12}",0.0,51.0,96.0,0.14,0.27,129.54
180,mp-3944,ZrAlNi2,"{'Zr': 1.0, 'Al': 1.0, 'Ni': 2.0}",0.12769519666204943,6.799140568933896,"{'G_Reuss': 39.0, 'G_VRH': 39.0, 'G_Voigt': 39.0, 'G_Voigt_Reuss_Hill': 39.0, 'K_Reuss': 149.0, 'K_VRH': 149.0, 'K_Voigt': 149.0, 'K_Voigt_Reuss_Hill': 149.0, 'elastic_anisotropy': 0.0, 'elastic_tensor': [[202.0, 122.0, 122.0, 0.0, 0.0, 0.0], [122.0, 202.0, 122.0, 0.0, 0.0, 0.0], [122.0, 122.0, 202.0, 0.0, 0.0, 0.0], [0.0, 0.0, 0.0, 39.0, 0.0, 0.0], [0.0, 0.0, 0.0, 0.0, 39.0, 0.0], [0.0, 0.0, 0.0, 0.0, 0.0, 39.0]], 'homogeneous_poisson': 0.38, 'poisson_ratio': 0.38, 'universal_anisotropy': 0.0, 'elastic_tensor_original': [[199.24818216298854, 115.40161590127259, 115.40161590127259, 0.0, 0.0, 0.0], [124.84304058854724, 203.92607152356416, 124.84304058854724, 0.0, 0.0, 0.0], [124.76385799357804, 124.76385799357804, 203.84710272769408, 0.0, 0.0, 0.0], [0.0011630199485066382, 0.0006793933335256689, 0.0009110799912389428, 38.77584196108999, 0.0, 0.0], [0.0001856034153051813, 0.00033549674034492264, 0.00026119342240140216, 0.0, 38.77751050802994, 0.0], [-2.4519749012385572e-05, -8.511309212714797e-05, -0.0001725664833444579, 0.0, 0.0, 38.777904851325786]], 'compliance_tensor': [[9.0, -3.4, -3.4, -0.0, 0.0, 0.0], [-3.4, 9.0, -3.4, 0.0, -0.0, 0.0], [-3.4, -3.4, 9.0, 0.0, 0.0, -0.0], [-0.0, 0.0, 0.0, 25.8, -0.0, -0.0], [0.0, -0.0, 0.0, -0.0, 25.8, -0.0], [0.0, 0.0, -0.0, -0.0, -0.0, 25.8]], 'warnings': [], 'nsites': 4}",0.0,39.0,149.0,0.0,0.38,107.63999999999999
181,mp-4064,Ca(NiP)2,"{'Ca': 1.0, 'Ni': 2.0, 'P': 2.0}",0.15330000409819697,5.080155950404428,"{'G_Reuss': 72.0, 'G_VRH': 74.0, 'G_Voigt': 76.0, 'G_Voigt_Reuss_Hill': 74.0, 'K_Reuss': 114.0, 'K_VRH': 114.0, 'K_Voigt': 114.0, 'K_Voigt_Reuss_Hill': 114.0, 'elastic_anisotropy': 0.24, 'elastic_tensor': [[224.0, 45.0, 70.0, 0.0, 0.0, 0.0], [45.0, 224.0, 70.0, 0.0, 0.0, 0.0], [70.0, 70.0, 212.0, 0.0, 0.0, 0.0], [0.0, 0.0, 0.0, 85.0, 0.0, 0.0], [0.0, 0.0, 0.0, 0.0, 85.0, 0.0], [0.0, 0.0, 0.0, 0.0, 0.0, 50.0]], 'homogeneous_poisson': 0.23, 'poisson_ratio': 0.23, 'universal_anisotropy': 0.24, 'elastic_tensor_original': [[224.1385770724091, 44.50062633752206, 67.4294961384103, 0.0, 0.0, 0.0], [44.503142370053965, 224.1408004944517, 67.43077850910052, 0.0, 0.0, 0.0], [72.33159081692867, 72.33159081692867, 211.79804973248687, 0.0, 0.0, 0.0], [0.0359788329058146, 0.035797625972688485, 0.035906019465410596, 85.16592706398684, 0.0, 0.0], [0.008076571876362428, 0.008435419070702452, 0.00814248197328009, 0.0, 85.16522261628431, 0.0], [-0.0044584303240221826, -0.004436626956502966, -0.0047095107177115144, 0.0, 0.0, 50.15316529206335]], 'compliance_tensor': [[5.0, -0.5, -1.5, 0.0, 0.0, 0.0], [-0.5, 5.0, -1.5, 0.0, -0.0, 0.0], [-1.5, -1.5, 5.7, 0.0, 0.0, 0.0], [0.0, 0.0, 0.0, 11.7, 0.0, 0.0], [0.0, -0.0, 0.0, 0.0, 11.7, 0.0], [0.0, 0.0, 0.0, 0.0, 0.0, 19.9]], 'warnings': [], 'nsites': 5}",0.0,74.0,114.0,0.24,0.23,182.04
182,mp-4634,LaNi4B,"{'La': 1.0, 'Ni': 4.0, 'B': 1.0}",0.17574454285977842,8.11817859706775,"{'G_Reuss': 64.0, 'G_VRH': 64.0, 'G_Voigt': 64.0, 'G_Voigt_Reuss_Hill': 64.0, 'K_Reuss': 133.0, 'K_VRH': 133.0, 'K_Voigt': 133.0, 'K_Voigt_Reuss_Hill': 133.0, 'elastic_anisotropy': 0.07, 'elastic_tensor': [[220.0, 88.0, 85.0, 0.0, 0.0, 0.0], [88.0, 220.0, 85.0, 0.0, 0.0, 0.0], [85.0, 85.0, 245.0, 0.0, 0.0, 0.0], [0.0, 0.0, 0.0, 57.0, 0.0, 0.0], [0.0, 0.0, 0.0, 0.0, 57.0, 0.0], [0.0, 0.0, 0.0, 0.0, 0.0, 66.0]], 'homogeneous_poisson': 0.29, 'poisson_ratio': 0.29, 'universal_anisotropy': 0.07, 'elastic_tensor_original': [[220.18463953832497, 89.89621647876254, 92.13600808600057, 0.0, 0.0, 1.0199818787176574e-05], [88.28751644298765, 219.01555100750593, 91.05579971640913, 0.0, 0.0, 2.4600521405007486e-05], [78.1416385741185, 78.14164477414883, 244.53036074593575, 0.0, 0.0, 8.800043039137042e-06], [0.0, 0.0, 0.0, 57.093916867482584, 6.399993696661466e-06, 0.0], [0.0, 0.0, 0.0, 0.0, 56.20240108353025, 0.0], [1.5127315584124672e-07, 0.0, 0.0, 0.0, 0.0, 66.97398022518773]], 'compliance_tensor': [[5.783095176715816, -1.7795944547809204, -1.3894887128627038, 0.0, 0.0, -1.3062190590373725e-08], [-1.7795944547809206, 5.7830945660026964, -1.3894886394955026, 0.0, 0.0, -1.3062189878799774e-08], [-1.3894887128627036, -1.3894886394955026, 5.053967097374926, 0.0, 0.0, 3.1384173676624605e-09], [0.0, 0.0, 0.0, 17.652823885050438, -1.9936086229460843e-08, 0.0], [0.0, 0.0, 0.0, -1.9936086229460843e-08, 17.652824817147483, 0.0], [-1.306218953856494e-08, -1.3062190249355089e-08, 3.138417131220891e-09, 0.0, 0.0, 15.12537865228034]], 'warnings': ['Structure contains a rare earth element'], 'nsites': 12}",0.0,64.0,133.0,0.07,0.29,165.12
183,mp-4720,Si2Ni6B,"{'Si': 2.0, 'Ni': 6.0, 'B': 1.0}",0.12757542231773755,7.5297562519161225,"{'G_Reuss': 65.0, 'G_VRH': 77.0, 'G_Voigt': 88.0, 'G_Voigt_Reuss_Hill': 77.0, 'K_Reuss': 206.0, 'K_VRH': 210.0, 'K_Voigt': 213.0, 'K_Voigt_Reuss_Hill': 210.0, 'elastic_anisotropy': 1.79, 'elastic_tensor': [[322.0, 156.0, 186.0, 0.0, 0.0, 0.0], [156.0, 322.0, 186.0, 0.0, 0.0, 0.0], [186.0, 186.0, 219.0, 0.0, 0.0, 0.0], [0.0, 0.0, 0.0, 123.0, 0.0, 0.0], [0.0, 0.0, 0.0, 0.0, 123.0, 0.0], [0.0, 0.0, 0.0, 0.0, 0.0, 83.0]], 'homogeneous_poisson': 0.34, 'poisson_ratio': 0.34, 'universal_anisotropy': 1.79, 'elastic_tensor_original': [[322.4311472290984, 155.67715619232908, 189.05901722378934, 0.0, 0.0, 0.0], [154.70773087479188, 322.8329808778847, 188.5194713463432, 0.0, 0.0, 0.0], [183.61912914260924, 183.61906992499158, 219.0072806155618, 0.0, 0.0, 0.0], [0.025316743015947076, 0.04178376879776828, 0.0394508179510278, 123.40716345881333, 0.0, 0.0], [-2.2296613204541775e-05, 0.00015120297079791481, 0.00046885220917766777, 0.0, 123.35827097681295, 0.0], [5.6229868010657823e-05, -0.0003413291987653255, -0.00037683911541004915, 0.0, 0.0, 82.71813860480232]], 'compliance_tensor': [[6.1, 0.1, -5.3, 0.0, 0.0, -0.0], [0.1, 6.1, -5.3, -0.0, -0.0, -0.0], [-5.3, -5.3, 13.5, 0.0, 0.0, 0.0], [0.0, -0.0, 0.0, 8.1, -0.0, -0.0], [0.0, -0.0, 0.0, -0.0, 8.1, -0.0], [-0.0, -0.0, 0.0, -0.0, -0.0, 12.0]], 'warnings': [], 'nsites': 9}",0.0,77.0,210.0,1.79,0.34,206.36
184,mp-4881,Er(SiNi)2,"{'Er': 1.0, 'Si': 2.0, 'Ni': 2.0}",0.1250122778001909,7.614693633627448,"{'G_Reuss': 70.0, 'G_VRH': 72.0, 'G_Voigt': 73.0, 'G_Voigt_Reuss_Hill': 72.0, 'K_Reuss': 129.0, 'K_VRH': 129.0, 'K_Voigt': 130.0, 'K_Voigt_Reuss_Hill': 129.0, 'elastic_anisotropy': 0.2, 'elastic_tensor': [[226.0, 62.0, 93.0, 0.0, 0.0, 0.0], [62.0, 226.0, 93.0, 0.0, 0.0, 0.0], [93.0, 93.0, 219.0, 0.0, 0.0, 0.0], [0.0, 0.0, 0.0, 85.0, 0.0, 0.0], [0.0, 0.0, 0.0, 0.0, 85.0, 0.0], [0.0, 0.0, 0.0, 0.0, 0.0, 55.0]], 'homogeneous_poisson': 0.27, 'poisson_ratio': 0.27, 'universal_anisotropy': 0.2, 'elastic_tensor_original': [[225.78200376073417, 61.63012390393829, 85.60333168467682, -9.000111643793016e-06, -9.000111643793016e-06, 0.0], [61.630123903938255, 225.78200376073417, 85.60333168467682, -9.000111641458722e-06, 8.820143884279762e-06, 0.0], [100.9087089601434, 100.9087089601434, 219.0434373950294, -2.2999525316213043e-05, -2.2999525316213043e-05, 0.0], [0.0, -1.7914749270872498e-07, 0.0, 85.21343706877269, 7.919058119247155e-07, -8.957347375810097e-08], [-1.7914749050076272e-07, 0.0, 0.0, -7.919058118196362e-07, 85.21343706877269, -8.95740312115304e-08], [0.5469496307390738, -0.5469496307391194, 0.0, -4.500029048027017e-07, 4.4125157386202236e-07, 54.692488357934614]], 'compliance_tensor': [[5.4, -0.6, -2.0, -0.0, 0.0, 0.0], [-0.6, 5.4, -2.0, 0.0, -0.0, 0.0], [-2.0, -2.0, 6.3, 0.0, 0.0, 0.0], [-0.0, 0.0, 0.0, 11.7, 0.0, 0.0], [0.0, -0.0, 0.0, 0.0, 11.7, 0.0], [0.0, 0.0, 0.0, 0.0, 0.0, 18.3]], 'warnings': ['Contains a rare earth element'], 'nsites': 5}",0.0,72.0,129.0,0.2,0.27,182.88