,mp_id,Formula,Composition,IPF,Density,Elastic_Tensor,E_above_Hull,G_VRH,K_VRH,Elastic_Anisotropy,poisson_ratio,Y_Modulus
159,mp-866224,Be2NiPt,"{'Be': 2.0, 'Ni': 1.0, 'Pt': 1.0}",0.1365891264201777,11.002438318605542,"{'G_Reuss': 57.0, 'G_VRH': 65.0, 'G_Voigt': 73.0, 'G_Voigt_Reuss_Hill': 65.0, 'K_Reuss': 208.0, 'K_VRH': 208.0, 'K_Voigt': 208.0, 'K_Voigt_Reuss_Hill': 208.0, 'elastic_anisotropy': 1.45, 'elastic_tensor': [[254.0, 185.0, 185.0, 0.0, 0.0, 0.0], [185.0, 254.0, 185.0, 0.0, 0.0, 0.0], [185.0, 185.0, 254.0, 0.0, 0.0, 0.0], [0.0, 0.0, 0.0, 99.0, 0.0, 0.0], [0.0, 0.0, 0.0, 0.0, 99.0, 0.0], [0.0, 0.0, 0.0, 0.0, 0.0, 99.0]], 'homogeneous_poisson': 0.36, 'poisson_ratio': 0.36, 'universal_anisotropy': 1.45, 'elastic_tensor_original': [[253.8127325353289, 184.8524265923869, 184.8524265923869, 0.0, 0.0, 0.0], [184.87120538544357, 253.82933035462028, 184.87120538544357, 0.0, 0.0, 0.0], [184.88600897091084, 184.88594928926528, 253.8582829150603, -3.194161082780638e-08, 4.598923024945858e-08, 2.5503118592882233e-07], [0.00016994100304402128, 1.6984744254603643, -1.6981382078963938, 98.62720467646602, 0.0, 0.0], [3.3965759567134137, -5.003552373546863e-05, -3.3965762222688, 0.0, 98.62658652797023, 0.0], [3.3964297323619568, -3.39676568437054, -0.00011990547930387153, 0.0, 0.0, 98.62774237612409]], 'compliance_tensor': [[10.2, -4.3, -4.3, -0.0, -0.0, 0.0], [-4.3, 10.2, -4.3, 0.0, -0.0, -0.0], [-4.3, -4.3, 10.2, -0.0, 0.0, -0.0], [-0.0, 0.0, -0.0, 10.1, -0.0, -0.0], [-0.0, -0.0, 0.0, -0.0, 10.1, -0.0], [0.0, -0.0, -0.0, -0.0, -0.0, 10.1]], 'warnings': [], 'nsites': 4}",0.0,65.0,208.0,1.45,0.36,176.79999999999998
160,mp-867271,Be2CoNi,"{'Be': 2.0, 'Co': 1.0, 'Ni': 1.0}",0.1524540419062629,6.457584804748836,"{'G_Reuss': 123.0, 'G_VRH': 125.0, 'G_Voigt': 126.0, 'G_Voigt_Reuss_Hill': 125.0, 'K_Reuss': 192.0, 'K_VRH': 192.0, 'K_Voigt': 192.0, 'K_Voigt_Reuss_Hill': 192.0, 'elastic_anisotropy': 0.12, 'elastic_tensor': [[330.0, 123.0, 123.0, 0.0, 0.0, 0.0], [123.0, 330.0, 123.0, 0.0, 0.0, 0.0], [123.0, 123.0, 330.0, 0.0, 0.0, 0.0], [0.0, 0.0, 0.0, 142.0, 0.0, 0.0], [0.0, 0.0, 0.0, 0.0, 142.0, 0.0], [0.0, 0.0, 0.0, 0.0, 0.0, 142.0]], 'homogeneous_poisson': 0.23, 'poisson_ratio': 0.23, 'universal_anisotropy': 0.12, 'elastic_tensor_original': [[329.6682746014655, 122.85661594561854, 122.85661594561854, 0.0, 0.0, 0.0], [123.64433982850638, 330.46892811161564, 123.64433982850638, 0.0, 0.0, 0.0], [123.2436590994161, 123.2436590994161, 330.04768689357627, 0.0, 0.0, 0.0], [-0.03794656179923424, -0.037326915154120774, -0.037420658484370276, 141.7274560381123, 0.0, 0.0], [0.037047555328700285, 0.03768145530103947, 0.0371544319914376, 0.0, 141.7274550046998, 0.0], [-0.0370875353069424, -0.03718881863619735, -0.03771813194713546, 0.0, 0.0, 141.72746808470427]], 'compliance_tensor': [[3.8, -1.0, -1.0, 0.0, 0.0, -0.0], [-1.0, 3.8, -1.0, -0.0, 0.0, 0.0], [-1.0, -1.0, 3.8, 0.0, -0.0, 0.0], [0.0, -0.0, 0.0, 7.1, -0.0, -0.0], [0.0, 0.0, -0.0, -0.0, 7.1, -0.0], [-0.0, 0.0, 0.0, -0.0, -0.0, 7.1]], 'warnings': [], 'nsites': 4}",0.0,125.0,192.0,0.12,0.23,307.5
161,mp-867775,Al2NiRu,"{'Al': 2.0, 'Ni': 1.0, 'Ru': 1.0}",0.10764711887742592,6.966921575232794,"{'G_Reuss': 82.0, 'G_VRH': 87.0, 'G_Voigt': 91.0, 'G_Voigt_Reuss_Hill': 87.0, 'K_Reuss': 179.0, 'K_VRH': 179.0, 'K_Voigt': 179.0, 'K_Voigt_Reuss_Hill': 179.0, 'elastic_anisotropy': 0.56, 'elastic_tensor': [[256.0, 140.0, 140.0, 0.0, 0.0, 0.0], [140.0, 256.0, 140.0, 0.0, 0.0, 0.0], [140.0, 140.0, 256.0, 0.0, 0.0, 0.0], [0.0, 0.0, 0.0, 113.0, 0.0, 0.0], [0.0, 0.0, 0.0, 0.0, 113.0, 0.0], [0.0, 0.0, 0.0, 0.0, 0.0, 113.0]], 'homogeneous_poisson': 0.29, 'poisson_ratio': 0.29, 'universal_anisotropy': 0.56, 'elastic_tensor_original': [[256.06007576555277, 140.05166675513257, 140.05122715494096, -3.809414811362811e-07, -5.232956523185581e-06, 4.751738620577009e-06], [141.16073327372789, 258.3710166196426, 141.16093289013935, 3.3282302644205682e-06, 2.6065033940527886e-07, -1.1348097381805323e-05], [138.89576308157277, 138.89599132477437, 253.70275906580528, -4.5311809175200884e-06, 1.8044525777734868e-06, 4.009894617274416e-08], [-0.011095146212896066, 2.1200819804135875, -2.1407021458137634, 113.10458946767886, 0.0, 0.0], [0.3342670727485654, -0.0075244271554165045, -0.34911974450808114, 0.0, 113.09695134866938, 0.0], [-2.4779222848579128, 2.466128709293106, -0.006190408575930275, 0.0, 0.0, 113.10082607924424]], 'compliance_tensor': [[6.4, -2.3, -2.3, 0.0, -0.0, -0.0], [-2.3, 6.4, -2.3, 0.0, -0.0, 0.0], [-2.3, -2.3, 6.4, -0.0, 0.0, 0.0], [0.0, 0.0, -0.0, 8.8, -0.0, 0.0], [-0.0, -0.0, 0.0, -0.0, 8.8, 0.0], [-0.0, 0.0, -0.0, 0.0, -0.0, 8.8]], 'warnings': [], 'nsites': 4}",0.0,87.0,179.0,0.56,0.29,224.46
162,mp-8771,Lu2(NiB2)3,"{'Lu': 2.0, 'Ni': 3.0, 'B': 6.0}",0.13590908590729633,8.757489438252206,"{'G_Reuss': 138.0, 'G_VRH': 139.0, 'G_Voigt': 140.0, 'G_Voigt_Reuss_Hill': 139.0, 'K_Reuss': 194.0, 'K_VRH': 194.0, 'K_Voigt': 195.0, 'K_Voigt_Reuss_Hill': 194.0, 'elastic_anisotropy': 0.06, 'elastic_tensor': [[349.0, 110.0, 116.0, 0.0, 0.0, 0.0], [110.0, 409.0, 92.0, 0.0, 0.0, 0.0], [116.0, 92.0, 358.0, 0.0, 0.0, 0.0], [0.0, 0.0, 0.0, 142.0, 0.0, 0.0], [0.0, 0.0, 0.0, 0.0, 159.0, 0.0], [0.0, 0.0, 0.0, 0.0, 0.0, 131.0]], 'homogeneous_poisson': 0.21, 'poisson_ratio': 0.21, 'universal_anisotropy': 0.06, 'elastic_tensor_original': [[349.094738056471, 107.74680228599127, 116.38981981421317, 0.0, 0.0, 0.0], [112.24532875641162, 409.18714613180646, 93.81382645628386, 0.0, 0.0, 0.0], [114.6907110558694, 89.53094713221887, 358.32997480564393, 0.0, 0.0, 0.0], [0.0, 0.0, 0.0, 142.1200399383429, 0.0, 0.0], [0.0, 0.0, 0.0, 0.0, 159.10647630847376, 0.0], [0.0, 0.0, 0.0, 0.0, 0.0, 131.17579245489299]], 'compliance_tensor': [[3.389069060800494, -0.7067220461029327, -0.9119723859926869, 0.0, 0.0, 7.511669706906966e-17], [-0.7067220461029325, 2.739830125220569, -0.4730609385557993, 0.0, 0.0, 7.131317583851354e-17], [-0.9119723859926869, -0.4730609385557993, 3.2058053683804424, 0.0, 0.0, -2.883518383728857e-17], [0.0, 0.0, 0.0, 7.036305368573202, 5.4451600165015684e-17, 0.0], [0.0, 0.0, 0.0, 5.4451600165015697e-17, 6.2850992819501075, 0.0], [7.511669706906964e-17, 7.131317583851354e-17, -2.883518383728857e-17, 0.0, 0.0, 7.623357795561761]], 'warnings': ['Structure contains a rare earth element'], 'nsites': 11}",0.0,139.0,194.0,0.06,0.21,336.38
163,mp-8969,Mg2Ni3P,"{'Mg': 2.0, 'Ni': 3.0, 'P': 1.0}",0.14343004990820252,5.477005908649235,"{'G_Reuss': 68.0, 'G_VRH': 69.0, 'G_Voigt': 70.0, 'G_Voigt_Reuss_Hill': 69.0, 'K_Reuss': 129.0, 'K_VRH': 130.0, 'K_Voigt': 130.0, 'K_Voigt_Reuss_Hill': 130.0, 'elastic_anisotropy': 0.18, 'elastic_tensor': [[219.0, 78.0, 76.0, 5.0, 0.0, 0.0], [78.0, 219.0, 76.0, -5.0, 0.0, 0.0], [76.0, 76.0, 276.0, 0.0, 0.0, 0.0], [5.0, -5.0, 0.0, 59.0, 0.0, 0.0], [0.0, 0.0, 0.0, 0.0, 59.0, 5.0], [0.0, 0.0, 0.0, 0.0, 5.0, 71.0]], 'homogeneous_poisson': 0.27, 'poisson_ratio': 0.27, 'universal_anisotropy': 0.18, 'elastic_tensor_original': [[218.46868930592262, 78.44279497997, 73.1669386717308, -3.1266184080016384, 0.0, 0.0], [77.85275117487461, 218.89250708400436, 76.58151148111487, 3.018214502012044, 0.0, 0.0], [76.83992609920274, 76.83994275736173, 276.4994545245761, 0.0, 0.0, 0.0], [-5.916199438531043, 5.757658352507231, -0.7281774801531136, 58.50509879362803, 0.0, 0.0], [0.0052659733506035785, -0.03207182291430292, -0.014179651050422936, -0.024732805157309693, 58.74449781829599, -5.700881368476796], [0.12684093802440402, -0.101562155459656, -0.18262285337087655, 0.30789170242316183, -5.213473850731994, 71.3104617229928]], 'compliance_tensor': [[5.5, -1.6, -1.1, -0.6, 0.0, -0.0], [-1.6, 5.5, -1.1, 0.6, -0.0, -0.0], [-1.1, -1.1, 4.2, 0.0, -0.0, 0.0], [-0.6, 0.6, 0.0, 17.2, -0.0, 0.0], [0.0, -0.0, -0.0, -0.0, 17.2, -1.2], [-0.0, -0.0, 0.0, 0.0, -1.2, 14.2]], 'warnings': [], 'nsites': 6}",0.0,69.0,130.0,0.18,0.27,175.26
164,mp-924129,ZrNiSn,"{'Zr': 1.0, 'Ni': 1.0, 'Sn': 1.0}",0.11547836110863188,7.623580578224122,"{'G_Reuss': 73.0, 'G_VRH': 73.0, 'G_Voigt': 73.0, 'G_Voigt_Reuss_Hill': 73.0, 'K_Reuss': 152.0, 'K_VRH': 152.0, 'K_Voigt': 152.0, 'K_Voigt_Reuss_Hill': 152.0, 'elastic_anisotropy': 0.01, 'elastic_tensor': [[243.0, 106.0, 106.0, 0.0, 0.0, 0.0], [106.0, 243.0, 106.0, 0.0, 0.0, 0.0], [106.0, 106.0, 243.0, 0.0, 0.0, 0.0], [0.0, 0.0, 0.0, 75.0, 0.0, 0.0], [0.0, 0.0, 0.0, 0.0, 75.0, 0.0], [0.0, 0.0, 0.0, 0.0, 0.0, 75.0]], 'homogeneous_poisson': 0.29, 'poisson_ratio': 0.29, 'universal_anisotropy': 0.01, 'elastic_tensor_original': [[243.3924902115829, 106.22272251521063, 106.22272251521063, 0.0, 0.0, 0.0], [106.22272251521063, 243.3924902115829, 106.22272251521063, 0.0, 0.0, 0.0], [106.22272251521063, 106.22272251521063, 243.3924902115829, 0.0, 0.0, 0.0], [0.0, 0.0, 0.0, 75.4001215255341, 0.0, 0.0], [0.0, 0.0, 0.0, 0.0, 75.4001215255341, 0.0], [0.0, 0.0, 0.0, 0.0, 0.0, 75.4001215255341]], 'compliance_tensor': [[5.6, -1.7, -1.7, -0.0, 0.0, 0.0], [-1.7, 5.6, -1.7, 0.0, -0.0, -0.0], [-1.7, -1.7, 5.6, 0.0, 0.0, 0.0], [-0.0, 0.0, 0.0, 13.3, 0.0, 0.0], [0.0, -0.0, 0.0, 0.0, 13.3, 0.0], [0.0, -0.0, 0.0, 0.0, 0.0, 13.3]], 'warnings': [], 'nsites': 3}",0.0,73.0,152.0,0.01,0.29,188.34
165,mp-972406,YbSi2Ni,"{'Yb': 1.0, 'Si': 2.0, 'Ni': 1.0}",0.1263650669613345,7.233186695397496,"{'G_Reuss': 55.0, 'G_VRH': 57.0, 'G_Voigt': 59.0, 'G_Voigt_Reuss_Hill': 57.0, 'K_Reuss': 86.0, 'K_VRH': 87.0, 'K_Voigt': 89.0, 'K_Voigt_Reuss_Hill': 87.0, 'elastic_anisotropy': 0.33, 'elastic_tensor': [[142.0, 52.0, 30.0, 0.0, 0.0, 0.0], [52.0, 158.0, 77.0, 0.0, 0.0, 0.0], [30.0, 77.0, 181.0, 0.0, 0.0, 0.0], [0.0, 0.0, 0.0, 80.0, 0.0, 0.0], [0.0, 0.0, 0.0, 0.0, 49.0, 0.0], [0.0, 0.0, 0.0, 0.0, 0.0, 57.0]], 'homogeneous_poisson': 0.23, 'poisson_ratio': 0.23, 'universal_anisotropy': 0.33, 'elastic_tensor_original': [[141.69010877898137, 50.633587753738354, 21.160457964089325, 0.0, 0.0, 0.0], [54.197322870696276, 158.05273608044638, 71.07384531467062, 0.0, 0.0, 0.0], [37.84122691794089, 82.52568271788694, 181.42497657712767, 0.0, 0.0, 0.0], [0.0, 0.0, 0.0, 79.91378634832854, 0.0, 0.0], [0.0, 0.0, 0.0, 0.0, 48.83094282007909, 0.0], [0.0, 0.0, 0.0, 0.0, 0.0, 57.11999661520762]], 'compliance_tensor': [[8.1, -2.6, -0.2, 0.0, 0.0, 0.0], [-2.6, 8.8, -3.3, 0.0, 0.0, 0.0], [-0.2, -3.3, 6.9, 0.0, 0.0, -0.0], [0.0, 0.0, 0.0, 12.5, 0.0, 0.0], [0.0, 0.0, 0.0, 0.0, 20.5, 0.0], [0.0, 0.0, -0.0, 0.0, 0.0, 17.5]], 'warnings': ['Contains a rare earth element'], 'nsites': 8}",0.0,57.0,87.0,0.33,0.23,140.22
166,mp-1018647,YbNiH3,"{'Yb': 1.0, 'Ni': 1.0, 'H': 3.0}",0.16825843587309416,9.326303556316757,"{'G_Reuss': 56.0, 'G_VRH': 56.0, 'G_Voigt': 56.0, 'G_Voigt_Reuss_Hill': 56.0, 'K_Reuss': 91.0, 'K_VRH': 91.0, 'K_Voigt': 91.0, 'K_Voigt_Reuss_Hill': 91.0, 'elastic_anisotropy': 0.01, 'elastic_tensor': [[162.0, 55.0, 55.0, 0.0, 0.0, 0.0], [55.0, 162.0, 55.0, 0.0, 0.0, 0.0], [55.0, 55.0, 162.0, 0.0, 0.0, 0.0], [0.0, 0.0, 0.0, 57.0, 0.0, 0.0], [0.0, 0.0, 0.0, 0.0, 57.0, 0.0], [0.0, 0.0, 0.0, 0.0, 0.0, 57.0]], 'homogeneous_poisson': 0.25, 'poisson_ratio': 0.25, 'universal_anisotropy': 0.01, 'elastic_tensor_original': [[162.38185658710452, 55.342475770757076, 55.342475770757076, 0.0, 0.0, 0.0], [55.342475770757076, 162.38185658710452, 55.342475770757076, 0.0, 0.0, 0.0], [55.342475770757076, 55.342475770757076, 162.38185658710452, 0.0, 0.0, 0.0], [0.0, 0.0, 0.0, 57.099225383730705, 0.0, 0.0], [0.0, 0.0, 0.0, 0.0, 57.099225383730705, 0.0], [0.0, 0.0, 0.0, 0.0, 0.0, 57.099225383730705]], 'compliance_tensor': [[7.4, -1.9, -1.9, 0.0, 0.0, 0.0], [-1.9, 7.4, -1.9, 0.0, 0.0, 0.0], [-1.9, -1.9, 7.4, 0.0, 0.0, 0.0], [0.0, 0.0, 0.0, 17.5, 0.0, 0.0], [0.0, 0.0, 0.0, 0.0, 17.5, 0.0], [0.0, 0.0, 0.0, 0.0, 0.0, 17.5]], 'warnings': ['Contains a rare earth element'], 'nsites': 5}",0.0,56.0,91.0,0.01,0.25,140.0
167,mp-10240,ScNiP,"{'Sc': 1.0, 'Ni': 1.0, 'P': 1.0}",0.12612527783261362,5.322018244664231,"{'G_Reuss': 91.0, 'G_VRH': 92.0, 'G_Voigt': 92.0, 'G_Voigt_Reuss_Hill': 92.0, 'K_Reuss': 151.0, 'K_VRH': 152.0, 'K_Voigt': 152.0, 'K_Voigt_Reuss_Hill': 152.0, 'elastic_anisotropy': 0.05, 'elastic_tensor': [[258.0, 90.0, 95.0, 0.0, 0.0, 0.0], [90.0, 261.0, 104.0, 0.0, 0.0, 0.0], [95.0, 104.0, 266.0, 0.0, 0.0, 0.0], [0.0, 0.0, 0.0, 103.0, 0.0, 0.0], [0.0, 0.0, 0.0, 0.0, 100.0, 0.0], [0.0, 0.0, 0.0, 0.0, 0.0, 92.0]], 'homogeneous_poisson': 0.25, 'poisson_ratio': 0.25, 'universal_anisotropy': 0.05, 'elastic_tensor_original': [[266.07487362374394, 91.53026085439738, 104.56153522447462, 0.0, 0.0, 0.0], [99.00166935178504, 258.1642818738407, 92.56977501435595, 0.0, 0.0, 0.0], [104.06600227108609, 87.63104404249471, 261.12271946443104, 0.0, 0.0, 0.0], [-0.0031460694591250063, -0.0021557006787082025, -0.002945503039444554, 92.33668975921954, 0.0, 0.0], [-0.031771204825219834, -0.034079373053263834, -0.019455139827251108, 0.0, 103.2926589698121, 0.0], [-0.11609505896541619, -0.11965339825672888, -0.11990047843897668, 0.0, 0.0, 100.43890113405507]], 'compliance_tensor': [[4.7, -1.1, -1.2, 0.0, 0.0, 0.0], [-1.1, 4.8, -1.5, 0.0, 0.0, 0.0], [-1.2, -1.5, 4.8, 0.0, -0.0, 0.0], [0.0, 0.0, 0.0, 9.7, 0.0, 0.0], [0.0, 0.0, -0.0, 0.0, 10.0, 0.0], [0.0, 0.0, 0.0, 0.0, 0.0, 10.8]], 'warnings': [], 'nsites': 12}",0.0,92.0,152.0,0.05,0.25,230.0
168,mp-11285,Ca3(GaNi)4,"{'Ca': 3.0, 'Ga': 4.0, 'Ni': 4.0}",0.16190104345983214,5.20168840052664,"{'G_Reuss': 35.0, 'G_VRH': 35.0, 'G_Voigt': 35.0, 'G_Voigt_Reuss_Hill': 35.0, 'K_Reuss': 77.0, 'K_VRH': 77.0, 'K_Voigt': 77.0, 'K_Voigt_Reuss_Hill': 77.0, 'elastic_anisotropy': 0.0, 'elastic_tensor': [[126.0, 53.0, 53.0, 0.0, 0.0, 0.0], [53.0, 126.0, 53.0, 0.0, 0.0, 0.0], [53.0, 53.0, 126.0, 0.0, 0.0, 0.0], [0.0, 0.0, 0.0, 35.0, 0.0, 0.0], [0.0, 0.0, 0.0, 0.0, 35.0, 0.0], [0.0, 0.0, 0.0, 0.0, 0.0, 35.0]], 'homogeneous_poisson': 0.3, 'poisson_ratio': 0.3, 'universal_anisotropy': 0.0, 'elastic_tensor_original': [[124.86542618026068, 51.245364461715354, 51.245364461715354, 0.0, 0.0, 0.0], [53.78775408117013, 126.49681728980633, 53.78775408117013, 0.0, 0.0, 0.0], [53.738039712517825, 53.738039712517825, 126.44742651768205, 0.0, 0.0, 0.0], [-0.40550467610740426, -0.39825620752698926, -0.39795515919289914, 34.67849533474429, 0.0, 0.0], [-0.1421938243530599, -0.15333610373222853, -0.14131192968804773, 0.0, 34.676307850256926, 0.0], [-0.24749761493225356, -0.24781046168286186, -0.24504252328872725, 0.0, 0.0, 34.6827913459329]], 'compliance_tensor': [[10.6, -3.1, -3.1, 0.0, 0.0, 0.0], [-3.1, 10.6, -3.1, 0.0, 0.0, 0.0], [-3.1, -3.1, 10.6, 0.0, 0.0, 0.0], [0.0, 0.0, 0.0, 28.8, 0.0, 0.0], [0.0, 0.0, 0.0, 0.0, 28.8, 0.0], [0.0, 0.0, 0.0, 0.0, 0.0, 28.8]], 'warnings': [], 'nsites': 11}",0.0,35.0,77.0,0.0,0.3,91.0
169,mp-13074,LuNiPb,"{'Lu': 1.0, 'Ni': 1.0, 'Pb': 1.0}",0.19415185884325653,12.02143317305947,"{'G_Reuss': 42.0, 'G_VRH': 45.0, 'G_Voigt': 47.0, 'G_Voigt_Reuss_Hill': 45.0, 'K_Reuss': 89.0, 'K_VRH': 89.0, 'K_Voigt': 90.0, 'K_Voigt_Reuss_Hill': 89.0, 'elastic_anisotropy': 0.54, 'elastic_tensor': [[146.0, 62.0, 69.0, 0.0, 0.0, 0.0], [62.0, 146.0, 69.0, 0.0, 0.0, 0.0], [69.0, 69.0, 114.0, 0.0, 0.0, 0.0], [0.0, 0.0, 0.0, 62.0, 0.0, 0.0], [0.0, 0.0, 0.0, 0.0, 62.0, 0.0], [0.0, 0.0, 0.0, 0.0, 0.0, 42.0]], 'homogeneous_poisson': 0.29, 'poisson_ratio': 0.29, 'universal_anisotropy': 0.54, 'elastic_tensor_original': [[145.2093988269428, 63.74325045294744, 74.97866421098604, 0.0, 0.0, 0.0], [61.5309050850584, 145.3093921437269, 73.85562555571461, 0.0, 0.0, 0.0], [64.33768745065095, 64.33768665066349, 114.09916339612673, 0.0, 0.0, 0.0], [0.0, 0.0, 0.0, 61.5825883997717, 0.0, 0.0], [0.0, 0.0, 0.0, 0.0, 61.65380662413738, 0.0], [-6.586927274929583e-08, 0.0, 0.0, 0.0, 0.0, 42.862475314364836]], 'compliance_tensor': [[10.0, -1.9, -4.9, 0.0, 0.0, 0.0], [-1.9, 10.0, -4.9, 0.0, 0.0, 0.0], [-4.9, -4.9, 14.8, 0.0, 0.0, -0.0], [0.0, 0.0, 0.0, 16.2, 0.0, 0.0], [0.0, 0.0, 0.0, 0.0, 16.2, 0.0], [0.0, 0.0, -0.0, 0.0, 0.0, 23.8]], 'warnings': ['Contains a rare earth element'], 'nsites': 9}",0.0,45.0,89.0,0.54,0.29,116.10000000000001
170,mp-13094,YAl2Ni,"{'Y': 1.0, 'Al': 2.0, 'Ni': 1.0}",0.1254549530992981,4.672976145327725,"{'G_Reuss': 55.0, 'G_VRH': 57.0, 'G_Voigt': 59.0, 'G_Voigt_Reuss_Hill': 57.0, 'K_Reuss': 90.0, 'K_VRH': 91.0, 'K_Voigt': 93.0, 'K_Voigt_Reuss_Hill': 91.0, 'elastic_anisotropy': 0.45, 'elastic_tensor': [[159.0, 48.0, 80.0, 0.0, 0.0, 0.0], [48.0, 134.0, 56.0, 0.0, 0.0, 0.0], [80.0, 56.0, 173.0, 0.0, 0.0, 0.0], [0.0, 0.0, 0.0, 49.0, 0.0, 0.0], [0.0, 0.0, 0.0, 0.0, 94.0, 0.0], [0.0, 0.0, 0.0, 0.0, 0.0, 60.0]], 'homogeneous_poisson': 0.24, 'poisson_ratio': 0.24, 'universal_anisotropy': 0.45, 'elastic_tensor_original': [[172.90972297473186, 55.713501477225854, 79.852563780905, 0.0, 0.0, 0.0], [56.78999718112253, 134.20436402049174, 47.53810382995966, 0.0, 0.0, 0.0], [79.47684713859341, 48.03192468955955, 158.85735581626898, 0.0, 0.0, 0.0], [-5.058334392835963e-05, -5.000667714028673e-05, -1.934000405074044e-05, 59.98030730015673, 0.0, 0.0], [0.0002592035469846761, 0.00016830676534803406, 9.872338398343204e-05, 0.0, 93.95160790445001, 0.0], [-0.05273311826954585, -0.053976419672818444, -0.05439108203137716, 0.0, 0.0, 49.35411607377203]], 'compliance_tensor': [[8.5, -1.6, -3.4, 0.0, 0.0, 0.0], [-1.6, 8.9, -2.2, -0.0, 0.0, 0.0], [-3.4, -2.2, 8.0, 0.0, 0.0, 0.0], [0.0, -0.0, 0.0, 20.3, 0.0, 0.0], [0.0, 0.0, 0.0, 0.0, 10.6, 0.0], [0.0, 0.0, 0.0, 0.0, 0.0, 16.7]], 'warnings': [], 'nsites': 8}",0.0,57.0,91.0,0.45,0.24,141.35999999999999
171,mp-13535,Tb2ZnNi2,"{'Tb': 2.0, 'Zn': 1.0, 'Ni': 2.0}",0.15241294225790677,8.941626858341591,"{'G_Reuss': 30.0, 'G_VRH': 32.0, 'G_Voigt': 33.0, 'G_Voigt_Reuss_Hill': 32.0, 'K_Reuss': 92.0, 'K_VRH': 96.0, 'K_Voigt': 99.0, 'K_Voigt_Reuss_Hill': 96.0, 'elastic_anisotropy': 0.5, 'elastic_tensor': [[126.0, 57.0, 85.0, 0.0, 0.0, 0.0], [57.0, 132.0, 90.0, 0.0, 0.0, 0.0], [85.0, 90.0, 167.0, 0.0, 0.0, 0.0], [0.0, 0.0, 0.0, 34.0, 0.0, 0.0], [0.0, 0.0, 0.0, 0.0, 45.0, 0.0], [0.0, 0.0, 0.0, 0.0, 0.0, 20.0]], 'homogeneous_poisson': 0.35, 'poisson_ratio': 0.35, 'universal_anisotropy': 0.5, 'elastic_tensor_original': [[125.5375683875689, 62.06577828183697, 71.08791698428547, 0.0, 0.0, 0.0], [51.86224598039239, 132.38361871941026, 71.73048029870668, 0.0, 0.0, 0.0], [98.0764348048618, 108.19674223423362, 166.58620182721123, 0.0, 0.0, 0.0], [0.0, 0.0, -8.42293218909034e-08, 34.373918800053325, 0.0, 0.0], [0.0, 0.0, 0.0, -9.088458734425097e-07, 45.068720976345794, 0.0], [0.0, 0.0, 0.0, -8.424013754939364e-09, -2.5081475752863177e-08, 20.471463404567857]], 'compliance_tensor': [[12.3, -1.7, -5.4, -0.0, -0.0, -0.0], [-1.7, 12.2, -5.7, 0.0, -0.0, 0.0], [-5.4, -5.7, 11.8, 0.0, 0.0, 0.0], [-0.0, 0.0, 0.0, 29.1, -0.0, -0.0], [-0.0, -0.0, 0.0, -0.0, 22.2, 0.0], [-0.0, 0.0, 0.0, -0.0, 0.0, 48.8]], 'warnings': ['Contains a rare earth element'], 'nsites': 5}",0.0,32.0,96.0,0.5,0.35,86.4