,mp_id,Formula,Composition,IPF,Density,Elastic_Tensor,E_above_Hull,G_VRH,K_VRH,Elastic_Anisotropy,poisson_ratio,Y_Modulus
378,mp-6098,ErNi2B2C,"{'Er': 1.0, 'Ni': 2.0, 'B': 2.0, 'C': 1.0}",0.13459721066832814,8.212015098091147,"{'G_Reuss': 72.0, 'G_VRH': 75.0, 'G_Voigt': 79.0, 'G_Voigt_Reuss_Hill': 75.0, 'K_Reuss': 162.0, 'K_VRH': 162.0, 'K_Voigt': 162.0, 'K_Voigt_Reuss_Hill': 162.0, 'elastic_anisotropy': 0.54, 'elastic_tensor': [[248.0, 115.0, 115.0, 0.0, 0.0, 0.0], [115.0, 248.0, 115.0, 0.0, 0.0, 0.0], [115.0, 115.0, 274.0, 0.0, 0.0, 0.0], [0.0, 0.0, 0.0, 58.0, 0.0, 0.0], [0.0, 0.0, 0.0, 0.0, 58.0, 0.0], [0.0, 0.0, 0.0, 0.0, 0.0, 138.0]], 'homogeneous_poisson': 0.3, 'poisson_ratio': 0.3, 'universal_anisotropy': 0.54, 'elastic_tensor_original': [[247.89015435701296, 114.98735481190862, 106.29562830964699, -2.0400004934134486e-05, 1.0200002467067243e-05, 0.0], [114.9873548119065, 247.89015435700836, 106.29562830964502, -1.0112188206882676e-05, 2.0400004933160296e-05, 0.0], [123.44685983334686, 123.44685983334686, 273.98778267310223, -5.199925612565253e-05, 5.199925612565253e-05, 0.0], [0.0, -1.1156154767745845e-05, 0.0, 58.381757707752335, 1.6745796912831857e-08, 5.578029160151261e-06], [1.1156154767949082e-05, 0.0, 0.0, -1.6745796912814867e-08, 58.38175770775234, -5.578128722611327e-06], [1.3786088492754558, -1.3786088492824398, 0.0, 2.060704140582859e-08, -7.000002789012017e-07, 137.85416742521136]], 'compliance_tensor': [[5.6, -1.9, -1.6, 0.0, -0.0, 0.0], [-1.9, 5.6, -1.6, -0.0, 0.0, 0.0], [-1.6, -1.6, 5.0, -0.0, -0.0, 0.0], [0.0, -0.0, -0.0, 17.1, 0.0, -0.0], [-0.0, 0.0, -0.0, 0.0, 17.1, -0.0], [0.0, 0.0, 0.0, -0.0, -0.0, 7.3]], 'warnings': ['Contains a rare earth element'], 'nsites': 6}",0.0,75.0,162.0,0.54,0.3,195.0
379,mp-6223,DyNi2B2C,"{'Dy': 1.0, 'Ni': 2.0, 'B': 2.0, 'C': 1.0}",0.1559059194434449,8.000363562888488,"{'G_Reuss': 68.0, 'G_VRH': 71.0, 'G_Voigt': 75.0, 'G_Voigt_Reuss_Hill': 71.0, 'K_Reuss': 194.0, 'K_VRH': 194.0, 'K_Voigt': 195.0, 'K_Voigt_Reuss_Hill': 194.0, 'elastic_anisotropy': 0.51, 'elastic_tensor': [[295.0, 157.0, 150.0, 0.0, 0.0, 0.0], [157.0, 295.0, 150.0, 0.0, 0.0, 0.0], [150.0, 150.0, 252.0, 0.0, 0.0, 0.0], [0.0, 0.0, 0.0, 58.0, 0.0, 0.0], [0.0, 0.0, 0.0, 0.0, 58.0, 0.0], [0.0, 0.0, 0.0, 0.0, 0.0, 129.0]], 'homogeneous_poisson': 0.34, 'poisson_ratio': 0.34, 'universal_anisotropy': 0.51, 'elastic_tensor_original': [[294.5812124469281, 156.7606800030869, 142.59831813701027, -1.3799839677746855e-05, 0.0, 0.0], [156.7606800030869, 294.5812124469281, 142.59831813701027, 0.0, 1.379983967828964e-05, 0.0], [157.54633063610703, 157.54633063610703, 252.21216868610918, -2.419956318980108e-05, -2.419956318980108e-05, 0.0], [0.0, 0.0, 0.0, 58.34970652714141, 2.000004011277497e-07, 0.0], [0.0, 0.0, 0.0, -2.0000040112412928e-07, 58.34970652714141, 0.0], [1.2887835123882263, -1.2887835123882223, 0.0, -2.599973193816065e-06, 0.0, 128.87031842164197]], 'compliance_tensor': [[5.5, -1.8, -2.2, 0.0, -0.0, -0.0], [-1.8, 5.5, -2.2, -0.0, 0.0, -0.0], [-2.2, -2.2, 6.6, -0.0, -0.0, 0.0], [0.0, -0.0, -0.0, 17.1, 0.0, -0.0], [-0.0, 0.0, -0.0, 0.0, 17.1, -0.0], [-0.0, -0.0, 0.0, -0.0, -0.0, 7.8]], 'warnings': ['Contains a rare earth element'], 'nsites': 6}",0.0,71.0,194.0,0.51,0.34,190.28
380,mp-6754,TmNi2B2C,"{'Tm': 1.0, 'Ni': 2.0, 'B': 2.0, 'C': 1.0}",0.14990394228647744,8.30926209660754,"{'G_Reuss': 70.0, 'G_VRH': 74.0, 'G_Voigt': 79.0, 'G_Voigt_Reuss_Hill': 74.0, 'K_Reuss': 194.0, 'K_VRH': 195.0, 'K_Voigt': 196.0, 'K_Voigt_Reuss_Hill': 195.0, 'elastic_anisotropy': 0.64, 'elastic_tensor': [[296.0, 176.0, 136.0, 0.0, 0.0, 0.0], [176.0, 296.0, 136.0, 0.0, 0.0, 0.0], [136.0, 136.0, 271.0, 0.0, 0.0, 0.0], [0.0, 0.0, 0.0, 57.0, 0.0, 0.0], [0.0, 0.0, 0.0, 0.0, 57.0, 0.0], [0.0, 0.0, 0.0, 0.0, 0.0, 140.0]], 'homogeneous_poisson': 0.33, 'poisson_ratio': 0.33, 'universal_anisotropy': 0.64, 'elastic_tensor_original': [[296.3273294286602, 176.24171535265722, 116.91241577128883, 0.0, 0.0, 0.0], [176.24171535265714, 296.32732942866005, 116.9124157712888, 2.226583623668202e-07, 0.0, 0.0], [155.99358447692194, 155.99358447692194, 271.0091163575929, 0.0, 0.0, 0.0], [0.0, 1.0901713732877218e-07, 0.0, 57.24276447661593, -1.235874293193437e-08, -5.450802429579897e-08], [-1.0901714322736824e-07, 0.0, 0.0, 1.2358742931934483e-08, 57.24276447661593, 5.450909601378376e-08], [1.4050195957803895, -1.405019595780676, 0.0, -9.879456267298515e-08, 0.0, 140.49344246537026]], 'compliance_tensor': [[5.7, -2.7, -1.5, -0.0, 0.0, 0.0], [-2.7, 5.7, -1.5, 0.0, -0.0, -0.0], [-1.5, -1.5, 5.2, 0.0, 0.0, 0.0], [-0.0, 0.0, 0.0, 17.5, 0.0, 0.0], [0.0, -0.0, 0.0, 0.0, 17.5, 0.0], [0.0, -0.0, 0.0, 0.0, 0.0, 7.1]], 'warnings': ['Contains a rare earth element'], 'nsites': 6}",0.0,74.0,195.0,0.64,0.33,196.84
381,mp-556353,Rb2NaNiF6,"{'Rb': 2.0, 'Na': 1.0, 'Ni': 1.0, 'F': 6.0}",0.35821165790759735,3.9388229065722546,"{'G_Reuss': 26.0, 'G_VRH': 26.0, 'G_Voigt': 26.0, 'G_Voigt_Reuss_Hill': 26.0, 'K_Reuss': 41.0, 'K_VRH': 41.0, 'K_Voigt': 41.0, 'K_Voigt_Reuss_Hill': 41.0, 'elastic_anisotropy': 0.14, 'elastic_tensor': [[73.0, 28.0, 20.0, 0.0, 0.0, 0.0], [28.0, 73.0, 20.0, 0.0, 0.0, 0.0], [20.0, 20.0, 86.0, 0.0, 0.0, 0.0], [0.0, 0.0, 0.0, 23.0, 0.0, 0.0], [0.0, 0.0, 0.0, 0.0, 23.0, 0.0], [0.0, 0.0, 0.0, 0.0, 0.0, 31.0]], 'homogeneous_poisson': 0.24, 'poisson_ratio': 0.24, 'universal_anisotropy': 0.14, 'elastic_tensor_original': [[83.28541002178821, 18.951412404981166, 21.412877488362668, -3.95287581565544e-08, 0.0, -2.3856917393066773e-05], [18.95272597004722, 83.28205745909618, 21.412064210069904, 0.0, 3.952856894528253e-08, -2.3856874430689532e-05], [20.263568567372378, 18.436620317830695, 83.28382707151557, -3.484717879086613e-08, 0.0, -9.055306839118687e-06], [0.0, 0.0, 0.0, 22.602003998340493, -5.26640526488845e-06, 0.0], [0.0, 0.0, 0.0, -5.266403978947092e-06, 22.60200399834048, 0.0], [-1.0532804153587308e-05, -1.0532802287688175e-05, 0.0, 0.0, 0.0, 22.602003998340482]], 'compliance_tensor': [[16.70014162238012, -5.830332269160133, -2.5254802508417113, -8.029558822169602e-17, -3.1321707787838155e-15, 8.175523487933749e-06], [-5.830332269160131, 16.700110492534485, -2.525477897033977, 1.611967859266692e-15, 4.2396815311137243e-16, 5.008879388900504e-06], [-2.525480250841712, -2.5254778970339764, 12.743346224759259, 7.673328081600749e-16, -2.1004023924252274e-15, -1.236344194407039e-06], [-8.0295501931261e-17, 1.6119677237320126e-15, 7.673327689743661e-16, 43.835317840894156, 1.0729759442101335e-05, -3.5242433702167924e-15], [-3.1321708267855997e-15, 4.2396788328441913e-16, -2.100401862935326e-15, 1.0729759442101337e-05, 43.83535869649235, 1.916240950156083e-15], [8.175523488599146e-06, 5.0088793869945674e-06, -1.2363441941188126e-06, -3.5242431066514157e-15, 1.916241143437628e-15, 32.123940161028884]], 'warnings': [], 'nsites': 10}",0.0,26.0,41.0,0.14,0.24,64.48
382,mp-1025123,UNi2B2C,"{'U': 1.0, 'Ni': 2.0, 'B': 2.0, 'C': 1.0}",0.12736321515386903,10.077118365310168,"{'G_Reuss': 82.0, 'G_VRH': 93.0, 'G_Voigt': 103.0, 'G_Voigt_Reuss_Hill': 93.0, 'K_Reuss': 208.0, 'K_VRH': 209.0, 'K_Voigt': 209.0, 'K_Voigt_Reuss_Hill': 209.0, 'elastic_anisotropy': 1.25, 'elastic_tensor': [[297.0, 218.0, 130.0, 0.0, 0.0, 0.0], [218.0, 297.0, 130.0, 0.0, 0.0, 0.0], [130.0, 130.0, 334.0, 0.0, 0.0, 0.0], [0.0, 0.0, 0.0, 98.0, 0.0, 0.0], [0.0, 0.0, 0.0, 0.0, 98.0, 0.0], [0.0, 0.0, 0.0, 0.0, 0.0, 167.0]], 'homogeneous_poisson': 0.31, 'poisson_ratio': 0.31, 'universal_anisotropy': 1.25, 'elastic_tensor_original': [[297.42842102216923, 218.49672991029556, 117.90383826310318, 0.0, -1.1200231507908114e-05, 0.0], [218.49672991029968, 297.4284210221693, 117.90383826310318, -1.1200231515246147e-05, -2.2108300645264745e-05, 0.0], [141.28561270824525, 141.28561270824525, 334.09468643415306, 0.0, 0.0, 0.0], [0.0, -1.839393182167883e-05, 0.0, 98.09492835016539, -7.884091450617344e-07, -9.196978132212805e-06], [-1.8393931827547163e-05, 0.0, 0.0, 7.884091450620003e-07, 98.09492835016535, -9.196953284643784e-06], [1.6743276435995025, -1.674327643591419, 0.0, 0.0, -1.3448541141556828e-06, 167.4231150327618]], 'compliance_tensor': [[7.5, -5.1, -0.9, -0.0, 0.0, 0.0], [-5.1, 7.5, -0.9, 0.0, -0.0, -0.0], [-0.9, -0.9, 3.7, 0.0, 0.0, 0.0], [-0.0, 0.0, 0.0, 10.2, 0.0, 0.0], [0.0, -0.0, 0.0, 0.0, 10.2, 0.0], [0.0, -0.0, 0.0, 0.0, 0.0, 6.0]], 'warnings': ['Contains a rare earth element'], 'nsites': 6}",0.0,93.0,209.0,1.25,0.31,243.66
383,mp-504723,Ba2NiWO6,"{'Ba': 2.0, 'Ni': 1.0, 'W': 1.0, 'O': 6.0}",0.5903457057218283,7.36889259174993,"{'G_Reuss': 62.0, 'G_VRH': 65.0, 'G_Voigt': 68.0, 'G_Voigt_Reuss_Hill': 65.0, 'K_Reuss': 122.0, 'K_VRH': 122.0, 'K_Voigt': 122.0, 'K_Voigt_Reuss_Hill': 122.0, 'elastic_anisotropy': 0.48, 'elastic_tensor': [[182.0, 92.0, 92.0, 0.0, 0.0, 0.0], [92.0, 182.0, 92.0, 0.0, 0.0, 0.0], [92.0, 92.0, 182.0, 0.0, 0.0, 0.0], [0.0, 0.0, 0.0, 83.0, 0.0, 0.0], [0.0, 0.0, 0.0, 0.0, 83.0, 0.0], [0.0, 0.0, 0.0, 0.0, 0.0, 83.0]], 'homogeneous_poisson': 0.27, 'poisson_ratio': 0.27, 'universal_anisotropy': 0.48, 'elastic_tensor_original': [[181.78262850378334, 92.12788941593914, 92.12788941593914, 0.0, 0.0, -6.660097291549259e-05], [92.12788941590652, 181.7826285037187, 92.12788941590632, 0.0, 0.0, -6.691986667277777e-05], [92.12788941592818, 92.12788941591748, 181.7826285037455, -1.5944685458549152e-07, 0.0, -4.4908801738482154e-05], [0.0, 0.0, 0.0, 83.33920258334146, -2.032471549491805e-05, 0.0], [0.0, 0.0, 0.0, -2.029993953861633e-05, 83.33920258335137, 0.0], [-4.062465342611142e-05, -4.062465587083253e-05, 0.0, 0.0, 1.2387975240131485e-08, 83.33920258334642]], 'compliance_tensor': [[8.346584626026035, -2.807315437417764, -2.807315437419246, 8.015991437691799e-17, 3.181405999769497e-17, 8.137277791183806e-06], [-2.807315437417763, 8.346584626035492, -2.8073154374212526, -2.5253883349403995e-16, -1.54802749356199e-17, 3.11220983091702e-06], [-2.8073154374192457, -2.807315437421252, 8.346584626030998, -7.694055569047405e-17, 3.1814174909180403e-17, -2.736916545539852e-06], [8.01598382899365e-17, -2.5253875842828565e-16, -7.694048062470022e-17, 11.999154887529967, 5.849126376468579e-06, 3.308330985861399e-17], [3.1814149585130135e-17, -1.5480317606924604e-17, 3.1814151131986665e-17, 5.84912637646858e-06, 11.999154887521414, -1.7131147905176178e-16], [8.137277791183802e-06, 3.1122098309170236e-06, -2.736916545539852e-06, 3.308333018457603e-17, -1.7131147904690658e-16, 11.999154887531494]], 'warnings': [], 'nsites': 20}",0.0,65.0,122.0,0.48,0.27,165.1