,mp_id,Formula,Composition,IPF,Density,Elastic_Tensor,E_above_Hull,G_VRH,K_VRH,Elastic_Anisotropy,poisson_ratio,Y_Modulus
315,mp-1018048,LaNiC2,"{'La': 1.0, 'Ni': 1.0, 'C': 2.0}",0.15533006284157846,6.595556732822156,"{'G_Reuss': 75.0, 'G_VRH': 77.0, 'G_Voigt': 79.0, 'G_Voigt_Reuss_Hill': 77.0, 'K_Reuss': 120.0, 'K_VRH': 125.0, 'K_Voigt': 130.0, 'K_Voigt_Reuss_Hill': 125.0, 'elastic_anisotropy': 0.36, 'elastic_tensor': [[288.0, 108.0, 61.0, 0.0, 0.0, 0.0], [108.0, 241.0, 71.0, 0.0, 0.0, 0.0], [61.0, 71.0, 164.0, 0.0, 0.0, 0.0], [0.0, 0.0, 0.0, 76.0, 0.0, 0.0], [0.0, 0.0, 0.0, 0.0, 63.0, 0.0], [0.0, 0.0, 0.0, 0.0, 0.0, 106.0]], 'homogeneous_poisson': 0.24, 'poisson_ratio': 0.24, 'universal_anisotropy': 0.36, 'elastic_tensor_original': [[287.6894682609338, 121.57856133978454, 53.36294687170685, 0.0, 0.0, 0.0], [93.8404322921249, 240.78738373311506, 57.86642443284249, 0.0, 0.0, 0.0], [69.54261462850288, 83.34427663587255, 164.08383288755448, 0.0, 0.0, 0.0], [0.0, 0.0, 0.0, 75.80304633679722, 0.0, 0.0], [0.0, 0.0, 0.0, 0.0, 63.35824371161784, 0.0], [0.0, 0.0, 0.0, 0.0, 0.0, 105.76954661688234]], 'compliance_tensor': [[4.3, -1.7, -0.9, 0.0, 0.0, 0.0], [-1.7, 5.4, -1.7, 0.0, 0.0, 0.0], [-0.9, -1.7, 7.2, 0.0, 0.0, -0.0], [0.0, 0.0, 0.0, 13.2, 0.0, 0.0], [0.0, 0.0, 0.0, 0.0, 15.8, 0.0], [0.0, 0.0, -0.0, 0.0, 0.0, 9.5]], 'warnings': ['Contains a rare earth element'], 'nsites': 4}",0.0,77.0,125.0,0.36,0.24,190.96
316,mp-10898,ScAlNi2,"{'Sc': 1.0, 'Al': 1.0, 'Ni': 2.0}",0.13695783179104246,5.675438464131959,"{'G_Reuss': 55.0, 'G_VRH': 56.0, 'G_Voigt': 58.0, 'G_Voigt_Reuss_Hill': 56.0, 'K_Reuss': 133.0, 'K_VRH': 133.0, 'K_Voigt': 133.0, 'K_Voigt_Reuss_Hill': 133.0, 'elastic_anisotropy': 0.3, 'elastic_tensor': [[189.0, 105.0, 105.0, 0.0, 0.0, 0.0], [105.0, 189.0, 105.0, 0.0, 0.0, 0.0], [105.0, 105.0, 189.0, 0.0, 0.0, 0.0], [0.0, 0.0, 0.0, 69.0, 0.0, 0.0], [0.0, 0.0, 0.0, 0.0, 69.0, 0.0], [0.0, 0.0, 0.0, 0.0, 0.0, 69.0]], 'homogeneous_poisson': 0.31, 'poisson_ratio': 0.31, 'universal_anisotropy': 0.3, 'elastic_tensor_original': [[188.38760566275917, 104.22855079092082, 104.22908245539583, 0.00015880109649139671, -7.373478048143246e-05, 0.00010413840749812702], [105.21777756419974, 188.9791050297966, 105.21777756419974, 0.0, 0.0, 0.0], [105.24803171862423, 105.24803171862423, 189.00888351793068, 0.0, 0.0, 0.0], [0.004524417766455037, -0.000753270554798371, -0.0012173971782756658, 68.9669185850492, 0.0, 0.0], [-0.0019037076836452894, -0.003329689938731888, -0.0023698653110187508, 0.0, 68.972006338361, 0.0], [1.0949227576532173e-05, 0.00017804574768471386, 0.00023726324283275218, 0.0, 0.0, 68.96924280375856]], 'compliance_tensor': [[8.8, -3.1, -3.1, -0.0, -0.0, 0.0], [-3.1, 8.8, -3.1, 0.0, -0.0, -0.0], [-3.1, -3.1, 8.8, -0.0, 0.0, 0.0], [-0.0, 0.0, -0.0, 14.5, 0.0, -0.0], [-0.0, -0.0, 0.0, 0.0, 14.5, -0.0], [0.0, -0.0, 0.0, -0.0, -0.0, 14.5]], 'warnings': [], 'nsites': 4}",0.0,56.0,133.0,0.3,0.31,146.72
317,mp-11808,ScNi4Sn,"{'Sc': 1.0, 'Ni': 4.0, 'Sn': 1.0}",0.14723011153176735,8.058379306176281,"{'G_Reuss': 53.0, 'G_VRH': 55.0, 'G_Voigt': 58.0, 'G_Voigt_Reuss_Hill': 55.0, 'K_Reuss': 152.0, 'K_VRH': 152.0, 'K_Voigt': 152.0, 'K_Voigt_Reuss_Hill': 152.0, 'elastic_anisotropy': 0.51, 'elastic_tensor': [[203.0, 127.0, 127.0, 0.0, 0.0, 0.0], [127.0, 203.0, 127.0, 0.0, 0.0, 0.0], [127.0, 127.0, 203.0, 0.0, 0.0, 0.0], [0.0, 0.0, 0.0, 72.0, 0.0, 0.0], [0.0, 0.0, 0.0, 0.0, 72.0, 0.0], [0.0, 0.0, 0.0, 0.0, 0.0, 72.0]], 'homogeneous_poisson': 0.34, 'poisson_ratio': 0.34, 'universal_anisotropy': 0.51, 'elastic_tensor_original': [[201.98071591230817, 127.68675645804612, 127.68675645804612, 0.0, 0.0, 0.0], [127.66832189027723, 201.9644297239351, 127.66832189027723, 0.0, 0.0, 0.0], [126.33688856604711, 126.33482925653618, 204.20733747054936, -0.012524194740903539, -0.01626515672884049, 0.013168954503841819], [-0.00016859619753915213, -0.00016920952690796084, -0.00016447951868996978, 71.62075306928543, 0.0, 0.0], [-0.004281903034771681, -0.004275389671061528, -0.0042850896724715, 0.0, 71.62063540620099, 0.0], [0.00016398964857896762, 0.0001655096486959695, 0.0001633229800183726, 0.0, 0.0, 71.62072062597214]], 'compliance_tensor': [[9.6, -3.7, -3.7, -0.0, 0.0, -0.0], [-3.7, 9.6, -3.7, -0.0, -0.0, 0.0], [-3.7, -3.7, 9.6, 0.0, -0.0, -0.0], [-0.0, -0.0, 0.0, 14.0, -0.0, -0.0], [0.0, -0.0, -0.0, -0.0, 14.0, -0.0], [-0.0, 0.0, -0.0, -0.0, -0.0, 14.0]], 'warnings': [], 'nsites': 6}",0.0,55.0,152.0,0.51,0.34,147.4
318,mp-12006,CeCdNi4,"{'Ce': 1.0, 'Cd': 1.0, 'Ni': 4.0}",0.19798700449700454,9.159491733716141,"{'G_Reuss': 52.0, 'G_VRH': 54.0, 'G_Voigt': 56.0, 'G_Voigt_Reuss_Hill': 54.0, 'K_Reuss': 142.0, 'K_VRH': 142.0, 'K_Voigt': 142.0, 'K_Voigt_Reuss_Hill': 142.0, 'elastic_anisotropy': 0.37, 'elastic_tensor': [[194.0, 116.0, 116.0, 0.0, 0.0, 0.0], [116.0, 194.0, 116.0, 0.0, 0.0, 0.0], [116.0, 116.0, 194.0, 0.0, 0.0, 0.0], [0.0, 0.0, 0.0, 67.0, 0.0, 0.0], [0.0, 0.0, 0.0, 0.0, 67.0, 0.0], [0.0, 0.0, 0.0, 0.0, 0.0, 67.0]], 'homogeneous_poisson': 0.33, 'poisson_ratio': 0.33, 'universal_anisotropy': 0.37, 'elastic_tensor_original': [[193.71105462856949, 116.48928860896876, 116.48928860896876, 0.0, 0.0, 0.0], [116.48928860896878, 193.71105462856946, 116.48928860896878, 0.0, 0.0, 0.0], [116.48928860896878, 116.48928860896878, 193.71105462856946, 0.0, 0.0, 0.0], [0.0, 0.0, 0.0, 66.82472761570529, 0.0, 0.0], [0.0, 0.0, 0.0, 0.0, 66.82472761570527, 0.0], [0.0, 0.0, 0.0, 0.0, 0.0, 66.82472761570527]], 'compliance_tensor': [[9.4, -3.5, -3.5, 0.0, -0.0, -0.0], [-3.5, 9.4, -3.5, -0.0, 0.0, 0.0], [-3.5, -3.5, 9.4, -0.0, -0.0, 0.0], [0.0, -0.0, -0.0, 15.0, 0.0, -0.0], [-0.0, 0.0, -0.0, 0.0, 15.0, -0.0], [-0.0, 0.0, 0.0, -0.0, -0.0, 15.0]], 'warnings': ['Contains a rare earth element'], 'nsites': 6}",0.0,54.0,142.0,0.37,0.33,143.64000000000001
319,mp-12521,SrNi3Ge2,"{'Sr': 1.0, 'Ni': 3.0, 'Ge': 2.0}",0.18286998329288684,6.694657122323575,"{'G_Reuss': 29.0, 'G_VRH': 32.0, 'G_Voigt': 35.0, 'G_Voigt_Reuss_Hill': 32.0, 'K_Reuss': 86.0, 'K_VRH': 89.0, 'K_Voigt': 92.0, 'K_Voigt_Reuss_Hill': 89.0, 'elastic_anisotropy': 1.22, 'elastic_tensor': [[155.0, 116.0, 38.0, 0.0, 0.0, 0.0], [116.0, 155.0, 38.0, 0.0, 0.0, 0.0], [38.0, 38.0, 133.0, 0.0, 0.0, 0.0], [0.0, 0.0, 0.0, 37.0, 0.0, 0.0], [0.0, 0.0, 0.0, 0.0, 37.0, 0.0], [0.0, 0.0, 0.0, 0.0, 0.0, 19.0]], 'homogeneous_poisson': 0.34, 'poisson_ratio': 0.34, 'universal_anisotropy': 1.22, 'elastic_tensor_original': [[152.21873389552033, 119.51990234308568, 39.20287482855961, 0.0, 0.0, 0.0], [117.24651358512206, 153.88873565255187, 38.797681048393684, 0.0, 0.0, 0.0], [37.787684083531666, 37.787674843307514, 132.79867106615424, 0.0, 0.0, 0.0], [0.1051329276807213, 0.11713981800659115, 0.11680185086898962, 36.88181154877725, 0.0, 0.0], [-0.000174669883483944, -6.815995453333979e-05, -0.00017202321858360647, 0.0, 36.80723769409436, 0.0], [-0.2165936998196007, -0.2067290489301214, -0.2628079127544685, 0.0, 0.0, 21.197942688859506]], 'compliance_tensor': [[15.0, -11.0, -1.2, -0.0, -0.0, 0.0], [-11.0, 15.0, -1.2, -0.0, -0.0, 0.0], [-1.2, -1.2, 8.2, -0.0, 0.0, -0.0], [0.0, -0.0, -0.0, 27.1, 0.0, -0.0], [0.0, -0.0, 0.0, 0.0, 27.1, -0.0], [0.0, 0.0, -0.0, -0.0, 0.0, 51.9]], 'warnings': [], 'nsites': 12}",0.0,32.0,89.0,1.22,0.34,85.76
320,mp-12781,ScAl2Ni,"{'Sc': 1.0, 'Al': 2.0, 'Ni': 1.0}",0.1121509231239749,4.089561145613763,"{'G_Reuss': 61.0, 'G_VRH': 64.0, 'G_Voigt': 67.0, 'G_Voigt_Reuss_Hill': 64.0, 'K_Reuss': 106.0, 'K_VRH': 107.0, 'K_Voigt': 107.0, 'K_Voigt_Reuss_Hill': 107.0, 'elastic_anisotropy': 0.55, 'elastic_tensor': [[164.0, 64.0, 92.0, 0.0, 0.0, 0.0], [64.0, 174.0, 66.0, 0.0, 0.0, 0.0], [92.0, 66.0, 181.0, 0.0, 0.0, 0.0], [0.0, 0.0, 0.0, 58.0, 0.0, 0.0], [0.0, 0.0, 0.0, 0.0, 107.0, 0.0], [0.0, 0.0, 0.0, 0.0, 0.0, 73.0]], 'homogeneous_poisson': 0.25, 'poisson_ratio': 0.25, 'universal_anisotropy': 0.55, 'elastic_tensor_original': [[181.22875735879802, 66.05100945414587, 91.04778999041908, 0.0, 0.0, 0.0], [66.63765403125637, 174.1121313626351, 63.12374513287428, 0.0, 0.0, 0.0], [93.46145125338546, 64.52158215285937, 163.82255598629203, 0.0, 0.0, 0.0], [-0.0002709008395230696, -0.000353647530114486, -0.0005558410464974343, 73.27020912500049, 0.0, 0.0], [0.09130369367317893, 0.1593279036024262, 0.21529234074209472, 0.0, 106.55338152787645, 0.0], [-0.010270682695244879, -0.00975077009200462, -0.009151827632464117, 0.0, 0.0, 58.169711982227675]], 'compliance_tensor': [[9.0, -1.8, -3.9, -0.0, 0.0, 0.0], [-1.8, 7.0, -1.7, 0.0, 0.0, 0.0], [-3.9, -1.7, 8.1, -0.0, 0.0, 0.0], [-0.0, 0.0, -0.0, 17.2, 0.0, 0.0], [0.0, 0.0, 0.0, 0.0, 9.4, 0.0], [0.0, 0.0, 0.0, 0.0, 0.0, 13.6]], 'warnings': [], 'nsites': 8}",0.0,64.0,107.0,0.55,0.25,160.0
321,mp-13095,YAlNi,"{'Y': 1.0, 'Al': 1.0, 'Ni': 1.0}",0.1405381131346618,5.292877298522691,"{'G_Reuss': 15.0, 'G_VRH': 26.0, 'G_Voigt': 37.0, 'G_Voigt_Reuss_Hill': 26.0, 'K_Reuss': 91.0, 'K_VRH': 92.0, 'K_Voigt': 93.0, 'K_Voigt_Reuss_Hill': 92.0, 'elastic_anisotropy': 7.57, 'elastic_tensor': [[126.0, 56.0, 92.0, 0.0, 0.0, 0.0], [56.0, 126.0, 92.0, 0.0, 0.0, 0.0], [92.0, 92.0, 106.0, 0.0, 0.0, 0.0], [0.0, 0.0, 0.0, 56.0, 0.0, 0.0], [0.0, 0.0, 0.0, 0.0, 56.0, 0.0], [0.0, 0.0, 0.0, 0.0, 0.0, 35.0]], 'homogeneous_poisson': 0.37, 'poisson_ratio': 0.37, 'universal_anisotropy': 7.57, 'elastic_tensor_original': [[126.53875283873239, 58.10968494126396, 90.34273482034341, 0.0, 0.0, 0.0], [54.95582593133772, 124.5046232618747, 93.71092907808242, 0.0, 0.0, 0.0], [92.36409658945621, 92.36404387202398, 105.9865768470488, 0.0, 0.0, 0.0], [-0.017279470175232486, -0.01730336688114185, -0.016984742845952874, 56.0121936341605, 0.0, 0.0], [1.2973655640944137e-05, 3.038356808709644e-05, -9.639812320287398e-06, 0.0, 56.10970694700877, 0.0], [-0.3817990027035741, -0.37402196242562435, -0.3690313754607192, 0.0, 0.0, 35.71445783820734]], 'compliance_tensor': [[30.2, 16.0, -40.2, 0.0, -0.0, -0.0], [16.0, 30.2, -40.2, 0.0, -0.0, -0.0], [-40.2, -40.2, 79.3, -0.0, 0.0, 0.0], [0.0, 0.0, -0.0, 17.8, -0.0, 0.0], [-0.0, -0.0, 0.0, -0.0, 17.8, 0.0], [-0.0, -0.0, 0.0, 0.0, 0.0, 28.5]], 'warnings': [], 'nsites': 9}",0.0,26.0,92.0,7.57,0.37,71.24000000000001
322,mp-13513,SrNiGe2,"{'Sr': 1.0, 'Ni': 1.0, 'Ge': 2.0}",0.18728028473675234,5.983161160293903,"{'G_Reuss': 36.0, 'G_VRH': 37.0, 'G_Voigt': 38.0, 'G_Voigt_Reuss_Hill': 37.0, 'K_Reuss': 69.0, 'K_VRH': 70.0, 'K_Voigt': 71.0, 'K_Voigt_Reuss_Hill': 70.0, 'elastic_anisotropy': 0.22, 'elastic_tensor': [[103.0, 45.0, 37.0, 0.0, 0.0, 0.0], [45.0, 123.0, 65.0, 0.0, 0.0, 0.0], [37.0, 65.0, 121.0, 0.0, 0.0, 0.0], [0.0, 0.0, 0.0, 48.0, 0.0, 0.0], [0.0, 0.0, 0.0, 0.0, 35.0, 0.0], [0.0, 0.0, 0.0, 0.0, 0.0, 40.0]], 'homogeneous_poisson': 0.28, 'poisson_ratio': 0.28, 'universal_anisotropy': 0.22, 'elastic_tensor_original': [[102.65861823164649, 46.373294672149356, 37.34310568338096, 0.0, 0.0, 0.0], [44.282364608530614, 122.6172187411135, 66.28221206716923, 0.0, 0.0, 0.0], [37.59160602452073, 63.40950639460901, 121.2679596235334, 0.0, 0.0, 0.0], [-0.0031117515538878005, -0.003399051523948943, -0.0028108015352169783, 48.405304407254356, 0.0, 0.0], [-2.209436338353949e-05, 1.2556210394702815e-06, -2.152099446642316e-05, 0.0, 34.56555010147612, 0.0], [-0.00012835677491829911, -8.730353173723341e-05, -0.00010518672976562272, 0.0, 0.0, 40.06675780784023]], 'compliance_tensor': [[11.9, -3.4, -1.9, 0.0, 0.0, -0.0], [-3.4, 12.4, -5.5, 0.0, 0.0, 0.0], [-1.9, -5.5, 11.8, 0.0, 0.0, 0.0], [0.0, 0.0, 0.0, 20.7, 0.0, 0.0], [0.0, 0.0, 0.0, 0.0, 28.9, 0.0], [-0.0, 0.0, 0.0, 0.0, 0.0, 25.0]], 'warnings': [], 'nsites': 8}",0.0,37.0,70.0,0.22,0.28,94.72
323,mp-15778,MgNiSb,"{'Mg': 1.0, 'Ni': 1.0, 'Sb': 1.0}",0.12003015196269368,6.040044772506373,"{'G_Reuss': 42.0, 'G_VRH': 42.0, 'G_Voigt': 42.0, 'G_Voigt_Reuss_Hill': 42.0, 'K_Reuss': 86.0, 'K_VRH': 86.0, 'K_Voigt': 86.0, 'K_Voigt_Reuss_Hill': 86.0, 'elastic_anisotropy': 0.0, 'elastic_tensor': [[141.0, 58.0, 58.0, 0.0, 0.0, 0.0], [58.0, 141.0, 58.0, 0.0, 0.0, 0.0], [58.0, 58.0, 141.0, 0.0, 0.0, 0.0], [0.0, 0.0, 0.0, 42.0, 0.0, 0.0], [0.0, 0.0, 0.0, 0.0, 42.0, 0.0], [0.0, 0.0, 0.0, 0.0, 0.0, 42.0]], 'homogeneous_poisson': 0.29, 'poisson_ratio': 0.29, 'universal_anisotropy': 0.0, 'elastic_tensor_original': [[138.66947792572023, 59.82753514138863, 59.828421270724036, -0.0005427933154219586, -0.000518252128288519, -0.0005025730365088214], [58.24317515764257, 144.2397513520096, 58.244360003167735, -0.0015189816516328056, -0.0016497817736811887, -0.0015667154128853505], [55.95704764451673, 55.95908607025294, 140.2352215801358, -0.0011450359525089688, -0.0012756669270895793, -0.0010962787591865784], [0.00010752674289515322, 6.308671139076938e-05, 4.906670145114799e-05, 42.10471790923006, 0.0, 0.0], [7.71600547010517e-05, 4.816003414340259e-05, 0.00013120009301107583, 0.0, 42.10474124591327, 0.0], [1.0366674016031637e-05, -2.684335236369662e-05, 1.1023341147866818e-05, 0.0, 0.0, 42.10482841264173]], 'compliance_tensor': [[9.3, -2.7, -2.7, 0.0, -0.0, -0.0], [-2.7, 9.3, -2.7, -0.0, 0.0, -0.0], [-2.7, -2.7, 9.3, -0.0, -0.0, 0.0], [0.0, -0.0, -0.0, 23.8, -0.0, -0.0], [-0.0, 0.0, -0.0, -0.0, 23.8, -0.0], [-0.0, -0.0, 0.0, -0.0, -0.0, 23.8]], 'warnings': [], 'nsites': 3}",0.0,42.0,86.0,0.0,0.29,108.36
324,mp-19147,NiCO3,"{'Ni': 1.0, 'C': 1.0, 'O': 3.0}",0.5783548525389751,4.230353741957433,"{'G_Reuss': 65.0, 'G_VRH': 68.0, 'G_Voigt': 72.0, 'G_Voigt_Reuss_Hill': 68.0, 'K_Reuss': 120.0, 'K_VRH': 125.0, 'K_Voigt': 130.0, 'K_Voigt_Reuss_Hill': 125.0, 'elastic_anisotropy': 0.64, 'elastic_tensor': [[271.0, 90.0, 71.0, 17.0, 0.0, 0.0], [90.0, 271.0, 71.0, -17.0, 0.0, 0.0], [71.0, 71.0, 160.0, 0.0, 0.0, 0.0], [17.0, -17.0, 0.0, 56.0, 0.0, 0.0], [0.0, 0.0, 0.0, 0.0, 56.0, 17.0], [0.0, 0.0, 0.0, 0.0, 17.0, 90.0]], 'homogeneous_poisson': 0.27, 'poisson_ratio': 0.27, 'universal_anisotropy': 0.64, 'elastic_tensor_original': [[271.38491195976195, 89.83323917689461, 69.7328944813335, -16.83800190627127, 0.0, 0.0], [89.69075716125212, 270.9565131946783, 69.3052105484978, 16.789734996687727, 0.0, 0.0], [72.5000490467994, 72.50004486698708, 159.91515239165625, 0.0, 0.0, 0.0], [-17.132573402550968, 16.38345389253381, -0.38140923255200504, 56.470674830244775, 0.0, 0.0], [0.0016906053676060107, -0.004906106230147708, 0.0008439793514872379, -0.0013455256327648626, 56.41275278910919, -16.74295144804997], [0.00011610990734365394, -1.9846650828421632e-05, 2.0289983807923763e-05, 1.6536653469901263e-05, -17.02488485714157, 90.0815870497948]], 'compliance_tensor': [[4.6, -1.2, -1.5, -1.7, 0.0, 0.0], [-1.2, 4.6, -1.5, 1.7, -0.0, 0.0], [-1.5, -1.5, 7.6, -0.0, 0.0, -0.0], [-1.7, 1.7, -0.0, 18.8, 0.0, -0.0], [-0.0, -0.0, 0.0, 0.0, 18.8, -3.5], [0.0, 0.0, -0.0, -0.0, -3.5, 11.7]], 'warnings': [], 'nsites': 10}",0.0,68.0,125.0,0.64,0.27,172.72
325,mp-20896,TmInNi4,"{'Tm': 1.0, 'In': 1.0, 'Ni': 4.0}",0.18392747163454604,10.043388632651947,"{'G_Reuss': 56.0, 'G_VRH': 58.0, 'G_Voigt': 59.0, 'G_Voigt_Reuss_Hill': 58.0, 'K_Reuss': 149.0, 'K_VRH': 149.0, 'K_Voigt': 149.0, 'K_Voigt_Reuss_Hill': 149.0, 'elastic_anisotropy': 0.24, 'elastic_tensor': [[208.0, 120.0, 120.0, 0.0, 0.0, 0.0], [120.0, 208.0, 120.0, 0.0, 0.0, 0.0], [120.0, 120.0, 208.0, 0.0, 0.0, 0.0], [0.0, 0.0, 0.0, 69.0, 0.0, 0.0], [0.0, 0.0, 0.0, 0.0, 69.0, 0.0], [0.0, 0.0, 0.0, 0.0, 0.0, 69.0]], 'homogeneous_poisson': 0.33, 'poisson_ratio': 0.33, 'universal_anisotropy': 0.24, 'elastic_tensor_original': [[208.3149320764363, 119.93201880107713, 119.93201880107713, 0.0, 0.0, 0.0], [119.93201880107713, 208.3149320764363, 119.93201880107713, 0.0, 0.0, 0.0], [119.93201880107713, 119.93201880107713, 208.3149320764363, 0.0, 0.0, 0.0], [0.0, 0.0, 0.0, 68.71457687437923, 0.0, 0.0], [0.0, 0.0, 0.0, 0.0, 68.71457687437923, 0.0], [0.0, 0.0, 0.0, 0.0, 0.0, 68.71457687437923]], 'compliance_tensor': [[8.3, -3.0, -3.0, -0.0, 0.0, 0.0], [-3.0, 8.3, -3.0, 0.0, -0.0, -0.0], [-3.0, -3.0, 8.3, 0.0, 0.0, 0.0], [-0.0, 0.0, 0.0, 14.6, 0.0, 0.0], [0.0, -0.0, 0.0, 0.0, 14.6, 0.0], [0.0, -0.0, 0.0, 0.0, 0.0, 14.6]], 'warnings': ['Contains a rare earth element'], 'nsites': 6}",0.0,58.0,149.0,0.24,0.33,154.28
326,mp-20932,NbNiP,"{'Nb': 1.0, 'Ni': 1.0, 'P': 1.0}",0.11992443874285103,7.72927968986158,"{'G_Reuss': 97.0, 'G_VRH': 98.0, 'G_Voigt': 100.0, 'G_Voigt_Reuss_Hill': 98.0, 'K_Reuss': 217.0, 'K_VRH': 218.0, 'K_Voigt': 218.0, 'K_Voigt_Reuss_Hill': 218.0, 'elastic_anisotropy': 0.14, 'elastic_tensor': [[349.0, 147.0, 169.0, 0.0, 0.0, 0.0], [147.0, 314.0, 169.0, 0.0, 0.0, 0.0], [169.0, 169.0, 329.0, 0.0, 0.0, 0.0], [0.0, 0.0, 0.0, 106.0, 0.0, 0.0], [0.0, 0.0, 0.0, 0.0, 123.0, 0.0], [0.0, 0.0, 0.0, 0.0, 0.0, 100.0]], 'homogeneous_poisson': 0.3, 'poisson_ratio': 0.3, 'universal_anisotropy': 0.14, 'elastic_tensor_original': [[329.2080720030103, 168.36391259935414, 169.78105345243515, 0.0, 0.0, 0.0], [170.39552125896344, 349.012722323482, 150.63895817685545, 0.0, 0.0, 0.0], [167.90241493747894, 143.85814433162554, 313.57705558973447, 0.0, 0.0, 0.0], [-0.004999629133991558, -0.004972499138691959, -0.004991759135356171, 99.54962723991612, 0.0, 0.0], [0.03450007714102709, 0.03469960040641923, 0.03453558059358394, 0.0, 105.96348451458422, 0.0], [-0.036264784347144065, -0.062110753874817216, -0.08462572999751558, 0.0, 0.0, 123.28051321413786]], 'compliance_tensor': [[4.1, -1.1, -1.5, 0.0, -0.0, 0.0], [-1.1, 4.7, -1.9, 0.0, 0.0, 0.0], [-1.5, -1.9, 4.8, 0.0, -0.0, 0.0], [0.0, 0.0, 0.0, 9.4, 0.0, 0.0], [-0.0, 0.0, -0.0, 0.0, 8.1, 0.0], [0.0, 0.0, 0.0, 0.0, 0.0, 10.0]], 'warnings': [], 'nsites': 12}",0.0,98.0,218.0,0.14,0.3,254.8
327,mp-21251,UGa5Ni,"{'U': 1.0, 'Ga': 5.0, 'Ni': 1.0}",0.12169300045471669,8.710602967688303,"{'G_Reuss': 58.0, 'G_VRH': 58.0, 'G_Voigt': 58.0, 'G_Voigt_Reuss_Hill': 58.0, 'K_Reuss': 91.0, 'K_VRH': 91.0, 'K_Voigt': 91.0, 'K_Voigt_Reuss_Hill': 91.0, 'elastic_anisotropy': 0.0, 'elastic_tensor': [[169.0, 53.0, 53.0, 0.0, 0.0, 0.0], [53.0, 169.0, 53.0, 0.0, 0.0, 0.0], [53.0, 53.0, 164.0, 0.0, 0.0, 0.0], [0.0, 0.0, 0.0, 60.0, 0.0, 0.0], [0.0, 0.0, 0.0, 0.0, 60.0, 0.0], [0.0, 0.0, 0.0, 0.0, 0.0, 57.0]], 'homogeneous_poisson': 0.24, 'poisson_ratio': 0.24, 'universal_anisotropy': 0.0, 'elastic_tensor_original': [[169.30854215839457, 52.53715816325853, 53.438641726646445, 0.0, 0.0, 0.0], [52.53715816325853, 169.30854215839457, 53.43864172664644, 0.0, 0.0, 0.0], [53.382636296353645, 53.382636296353645, 163.99432003004947, 0.0, 0.0, 0.0], [0.0, 0.0, 0.0, 60.332052787388974, 0.0, 0.0], [0.0, 0.0, 0.0, 0.0, 60.332052787388946, 0.0], [0.5679321256400292, -0.5679321256400292, 0.0, 0.0, 0.0, 56.78996288502742]], 'compliance_tensor': [[7.0, -1.6, -1.7, 0.0, 0.0, 0.0], [-1.6, 7.0, -1.7, 0.0, 0.0, 0.0], [-1.7, -1.7, 7.2, 0.0, 0.0, 0.0], [0.0, 0.0, 0.0, 16.6, 0.0, 0.0], [0.0, 0.0, 0.0, 0.0, 16.6, 0.0], [0.0, 0.0, 0.0, 0.0, 0.0, 17.6]], 'warnings': ['Contains a rare earth element'], 'nsites': 7}",0.0,58.0,91.0,0.0,0.24,143.84