,mp_id,Formula,Composition,IPF,Density,Elastic_Tensor,E_above_Hull,G_VRH,K_VRH,Elastic_Anisotropy,poisson_ratio,Y_Modulus
250,mp-13993,Ti3NiS6,"{'Ti': 3.0, 'Ni': 1.0, 'S': 6.0}",0.15685253391938575,3.8664611998401566,"{'G_Reuss': 44.0, 'G_VRH': 46.0, 'G_Voigt': 48.0, 'G_Voigt_Reuss_Hill': 46.0, 'K_Reuss': 71.0, 'K_VRH': 72.0, 'K_Voigt': 72.0, 'K_Voigt_Reuss_Hill': 72.0, 'elastic_anisotropy': 0.48, 'elastic_tensor': [[156.0, 37.0, 34.0, -0.0, 9.0, 0.0], [37.0, 156.0, 34.0, 0.0, -9.0, 0.0], [34.0, 34.0, 125.0, 0.0, 0.0, 0.0], [-0.0, 0.0, 0.0, 36.0, 0.0, -9.0], [9.0, -9.0, 0.0, 0.0, 36.0, -0.0], [0.0, 0.0, 0.0, -9.0, -0.0, 60.0]], 'homogeneous_poisson': 0.23, 'poisson_ratio': 0.23, 'universal_anisotropy': 0.48, 'elastic_tensor_original': [[155.95013073632003, 37.12879875409588, 34.07128330301639, -0.14888009619160728, -9.5709588665625, -0.12389866797282337], [37.25668631820926, 155.87400943225623, 34.463723816605864, -0.021941546408771127, 9.20941159893181, -0.035885030919225964], [33.77250005345401, 33.7724998933556, 125.26562931153696, 0.0, 0.0, -1.5119747432855828e-07], [0.11504207016539177, -0.323611882820259, -0.11647666512190955, 35.69687646622059, -0.011737323280301299, 9.225016974395604], [-9.168987236918921, 9.223533189175862, -0.3474402434278657, 0.057477705419161716, 35.86819862109074, 0.19170401666761036], [0.2223232884431825, 0.1962018238513158, 0.15182325514699488, 9.259525715227443, 0.17812372265376636, 60.08178387521199]], 'compliance_tensor': [[7.2, -1.5, -1.6, 0.0, -2.3, 0.0], [-1.5, 7.2, -1.6, -0.0, 2.3, 0.0], [-1.6, -1.6, 8.8, -0.0, 0.0, -0.0], [0.0, -0.0, -0.0, 29.1, 0.0, 4.5], [-2.3, 2.3, 0.0, 0.0, 29.1, 0.1], [0.0, 0.0, -0.0, 4.5, 0.1, 17.4]], 'warnings': [], 'nsites': 10}",0.0,46.0,72.0,0.48,0.23,113.16
251,mp-15297,Hf6NiSb2,"{'Hf': 6.0, 'Ni': 1.0, 'Sb': 2.0}",0.11738917883976188,12.209879861316631,"{'G_Reuss': 70.0, 'G_VRH': 71.0, 'G_Voigt': 72.0, 'G_Voigt_Reuss_Hill': 71.0, 'K_Reuss': 126.0, 'K_VRH': 126.0, 'K_Voigt': 127.0, 'K_Voigt_Reuss_Hill': 126.0, 'elastic_anisotropy': 0.13, 'elastic_tensor': [[220.0, 90.0, 84.0, 0.0, 0.0, 0.0], [90.0, 220.0, 84.0, 0.0, 0.0, 0.0], [84.0, 84.0, 186.0, 0.0, 0.0, 0.0], [0.0, 0.0, 0.0, 84.0, 0.0, 0.0], [0.0, 0.0, 0.0, 0.0, 84.0, 0.0], [0.0, 0.0, 0.0, 0.0, 0.0, 65.0]], 'homogeneous_poisson': 0.26, 'poisson_ratio': 0.26, 'universal_anisotropy': 0.13, 'elastic_tensor_original': [[222.38039914273267, 91.7968858391251, 85.35280490514432, 0.0, 0.0, 0.0], [87.78250024989391, 218.26291685727074, 81.84103127379569, 0.0, 0.0, 0.0], [83.64010252457517, 83.64013250589498, 186.32517678295852, 0.0, 0.0, 0.0], [0.0002650961014040606, 0.0002648627590131662, 0.00025023277874067294, 84.46972573855884, 0.0, 0.0], [0.00016339448270889456, 0.000164331158884026, 0.00014045464884349497, 0.0, 84.32313062552102, 0.0], [0.009253476390072676, 0.009728680087101465, 0.009452359884834673, 0.0, 0.0, 65.4453066909566]], 'compliance_tensor': [[6.0, -1.7, -1.9, 0.0, -0.0, 0.0], [-1.7, 6.0, -1.9, 0.0, -0.0, 0.0], [-1.9, -1.9, 7.1, -0.0, 0.0, -0.0], [0.0, -0.0, -0.0, 11.8, 0.0, -0.0], [-0.0, 0.0, 0.0, 0.0, 11.8, 0.0], [0.0, 0.0, -0.0, -0.0, 0.0, 15.3]], 'warnings': [], 'nsites': 9}",0.0,71.0,126.0,0.13,0.26,178.92
252,mp-19384,Ni(AsO3)2,"{'Ni': 1.0, 'As': 2.0, 'O': 6.0}",0.5916179350466938,5.501470375401048,"{'G_Reuss': 76.0, 'G_VRH': 81.0, 'G_Voigt': 85.0, 'G_Voigt_Reuss_Hill': 81.0, 'K_Reuss': 138.0, 'K_VRH': 148.0, 'K_Voigt': 157.0, 'K_Voigt_Reuss_Hill': 148.0, 'elastic_anisotropy': 0.7, 'elastic_tensor': [[346.0, 141.0, 61.0, 0.0, -3.0, 0.0], [141.0, 346.0, 61.0, 0.0, 3.0, 0.0], [61.0, 61.0, 196.0, 0.0, 0.0, 0.0], [0.0, 0.0, 0.0, 57.0, 0.0, 3.0], [-3.0, 3.0, 0.0, 0.0, 57.0, 0.0], [0.0, 0.0, 0.0, 3.0, 0.0, 103.0]], 'homogeneous_poisson': 0.27, 'poisson_ratio': 0.27, 'universal_anisotropy': 0.7, 'elastic_tensor_original': [[346.0050714585882, 139.9233046861499, 59.459746880399535, 0.0, 1.1344273753009604, 0.0], [140.42031549499467, 347.1722307366047, 59.726212043123034, 0.0, -2.1597126056419182, 0.0], [62.00868774642016, 62.00871664154148, 195.52264661517606, 0.0, 0.0, 0.0], [-2.0526647032676535e-05, -1.6963317107677712e-05, -3.540996612897497e-05, 56.66156565703856, 1.8946648544504034e-05, -3.0576996286702314], [3.136989646210615, -3.1507431295349546, 0.5431997697362058, 0.0, 56.767123900102234, 0.0], [5.480012108680689e-05, 5.853384518870755e-06, 4.672680527917559e-05, -2.9985027326030136, 2.2066777856748158e-05, 102.13906284685127]], 'compliance_tensor': [[3.6, -1.3, -0.7, 0.0, 0.2, 0.0], [-1.3, 3.6, -0.7, -0.0, -0.2, 0.0], [-0.7, -0.7, 5.5, -0.0, -0.0, -0.0], [0.0, -0.0, -0.0, 17.7, 0.0, -0.5], [0.2, -0.2, -0.0, 0.0, 17.7, 0.0], [0.0, 0.0, -0.0, -0.5, 0.0, 9.8]], 'warnings': [], 'nsites': 18}",0.0,81.0,148.0,0.7,0.27,205.74
253,mp-20338,CeAl3Ni2,"{'Ce': 1.0, 'Al': 3.0, 'Ni': 2.0}",0.1283248835213835,5.752872864640461,"{'G_Reuss': 71.0, 'G_VRH': 72.0, 'G_Voigt': 73.0, 'G_Voigt_Reuss_Hill': 72.0, 'K_Reuss': 121.0, 'K_VRH': 121.0, 'K_Voigt': 121.0, 'K_Voigt_Reuss_Hill': 121.0, 'elastic_anisotropy': 0.08, 'elastic_tensor': [[201.0, 73.0, 79.0, 0.0, 0.0, 0.0], [73.0, 201.0, 79.0, 0.0, 0.0, 0.0], [79.0, 79.0, 228.0, 0.0, 0.0, 0.0], [0.0, 0.0, 0.0, 83.0, 0.0, 0.0], [0.0, 0.0, 0.0, 0.0, 83.0, 0.0], [0.0, 0.0, 0.0, 0.0, 0.0, 64.0]], 'homogeneous_poisson': 0.25, 'poisson_ratio': 0.25, 'universal_anisotropy': 0.08, 'elastic_tensor_original': [[198.36905618952355, 81.56166054084211, 92.13738162733561, 0.0, 0.0, 0.0], [69.28163017938304, 198.03911565280833, 87.41357063567715, 0.0, 0.0, 2.1599534529567423e-05], [67.91667614903079, 67.9166689490749, 228.43843680829787, 0.0, 0.0, 7.3999546685956e-06], [0.0, 0.0, 0.0, 82.60751656226876, 8.999901071212716e-06, 0.0], [0.0, 0.0, 0.0, 0.0, 83.16958210083979, 0.0], [1.4515294005515574e-05, 0.0, 0.0, 0.0, 0.0, 66.48701116711358]], 'compliance_tensor': [[6.2, -1.6, -1.6, 0.0, 0.0, -0.0], [-1.6, 6.2, -1.6, 0.0, 0.0, -0.0], [-1.6, -1.6, 5.5, 0.0, 0.0, 0.0], [0.0, 0.0, 0.0, 12.1, -0.0, 0.0], [0.0, 0.0, 0.0, -0.0, 12.1, 0.0], [-0.0, -0.0, 0.0, 0.0, 0.0, 15.6]], 'warnings': ['Contains a rare earth element'], 'nsites': 6}",0.0,72.0,121.0,0.08,0.25,180.0
254,mp-20697,ZrNiSb,"{'Zr': 1.0, 'Ni': 1.0, 'Sb': 1.0}",0.1243445064513952,8.30210439000311,"{'G_Reuss': 53.0, 'G_VRH': 54.0, 'G_Voigt': 56.0, 'G_Voigt_Reuss_Hill': 54.0, 'K_Reuss': 134.0, 'K_VRH': 135.0, 'K_Voigt': 135.0, 'K_Voigt_Reuss_Hill': 135.0, 'elastic_anisotropy': 0.29, 'elastic_tensor': [[197.0, 83.0, 103.0, 0.0, 0.0, 0.0], [83.0, 199.0, 125.0, 0.0, 0.0, 0.0], [103.0, 125.0, 197.0, 0.0, 0.0, 0.0], [0.0, 0.0, 0.0, 65.0, 0.0, 0.0], [0.0, 0.0, 0.0, 0.0, 63.0, 0.0], [0.0, 0.0, 0.0, 0.0, 0.0, 56.0]], 'homogeneous_poisson': 0.32, 'poisson_ratio': 0.32, 'universal_anisotropy': 0.29, 'elastic_tensor_original': [[196.91450012713105, 102.67315947579057, 123.22011300342507, 0.0, 0.0, 0.0], [104.31792351973522, 197.2993542636997, 83.8936840339827, 0.0, 0.0, 0.0], [126.43871898894342, 82.46229253690909, 198.8591974040027, 0.0, 0.0, 0.0], [-0.0008630293351988812, -0.0009317726155768562, -0.0008485760129985666, 56.484168559616855, 0.0, 0.0], [-0.09728048387732087, -0.10418152363381211, -0.05911896169174958, 0.0, 65.36155892205858, 0.0], [-0.037835138288659254, -0.04260586311657099, -0.04215510932708106, 0.0, 0.0, 62.79648126921089]], 'compliance_tensor': [[7.1, -1.0, -3.1, 0.0, -0.0, 0.0], [-1.0, 8.5, -4.8, 0.0, -0.0, 0.0], [-3.1, -4.8, 9.8, 0.0, 0.0, 0.0], [0.0, 0.0, 0.0, 15.3, 0.0, 0.0], [-0.0, -0.0, 0.0, 0.0, 15.9, 0.0], [0.0, 0.0, 0.0, 0.0, 0.0, 17.7]], 'warnings': [], 'nsites': 12}",0.0,54.0,135.0,0.29,0.32,142.56
255,mp-20949,MnSiNi,"{'Mn': 1.0, 'Si': 1.0, 'Ni': 1.0}",0.09753926284034116,6.560971814724587,"{'G_Reuss': 83.0, 'G_VRH': 86.0, 'G_Voigt': 90.0, 'G_Voigt_Reuss_Hill': 86.0, 'K_Reuss': 163.0, 'K_VRH': 165.0, 'K_Voigt': 167.0, 'K_Voigt_Reuss_Hill': 165.0, 'elastic_anisotropy': 0.46, 'elastic_tensor': [[216.0, 98.0, 129.0, 0.0, 0.0, 0.0], [98.0, 324.0, 126.0, 0.0, 0.0, 0.0], [129.0, 126.0, 252.0, 0.0, 0.0, 0.0], [0.0, 0.0, 0.0, 101.0, 0.0, 0.0], [0.0, 0.0, 0.0, 0.0, 118.0, 0.0], [0.0, 0.0, 0.0, 0.0, 0.0, 84.0]], 'homogeneous_poisson': 0.28, 'poisson_ratio': 0.28, 'universal_anisotropy': 0.46, 'elastic_tensor_original': [[251.78497992366894, 131.29751403791468, 125.44090047516396, 0.0, 0.0, 0.0], [127.44775690694536, 215.6095773741512, 96.84475213673112, 0.0, 0.0, 0.0], [127.32971428383016, 100.10153756879275, 324.0911550057448, 0.0, 0.0, 0.0], [-0.00020133256065005655, -0.00017258262066031753, -0.00016991909289670244, 84.12337630846407, 0.0, 0.0], [0.0011117135024991628, 0.0011720396275430112, 0.001092596284479904, 0.0, 101.03885072674701, 0.0], [0.0004406839234367629, 0.0005064871631845069, 0.0005558839799904714, 0.0, 0.0, 118.45674481424325]], 'compliance_tensor': [[6.9, -0.9, -3.1, 0.0, -0.0, 0.0], [-0.9, 4.0, -1.5, 0.0, 0.0, 0.0], [-3.1, -1.5, 6.3, 0.0, 0.0, 0.0], [0.0, 0.0, 0.0, 9.9, 0.0, 0.0], [-0.0, 0.0, 0.0, 0.0, 8.4, 0.0], [0.0, 0.0, 0.0, 0.0, 0.0, 11.9]], 'warnings': [], 'nsites': 12}",0.0,86.0,165.0,0.46,0.28,220.16
256,mp-22056,YIn2Ni,"{'Y': 1.0, 'In': 2.0, 'Ni': 1.0}",0.1590368923414611,7.452620133302915,"{'G_Reuss': 37.0, 'G_VRH': 41.0, 'G_Voigt': 44.0, 'G_Voigt_Reuss_Hill': 41.0, 'K_Reuss': 78.0, 'K_VRH': 79.0, 'K_Voigt': 79.0, 'K_Voigt_Reuss_Hill': 79.0, 'elastic_anisotropy': 0.87, 'elastic_tensor': [[117.0, 47.0, 76.0, 0.0, 0.0, 0.0], [47.0, 125.0, 50.0, 0.0, 0.0, 0.0], [76.0, 50.0, 121.0, 0.0, 0.0, 0.0], [0.0, 0.0, 0.0, 34.0, 0.0, 0.0], [0.0, 0.0, 0.0, 0.0, 73.0, 0.0], [0.0, 0.0, 0.0, 0.0, 0.0, 49.0]], 'homogeneous_poisson': 0.28, 'poisson_ratio': 0.28, 'universal_anisotropy': 0.87, 'elastic_tensor_original': [[121.45147002277997, 47.14498057840588, 75.01663534862936, 0.0, 0.0, 0.0], [52.42553483777984, 124.6334087130374, 47.10049090464568, 0.0, 0.0, 0.0], [76.79521590671688, 47.86864855246892, 117.23472978729187, 0.0, 0.0, 0.0], [0.3290087639763124, 0.34736175260026414, 0.3319594093727884, 48.656338251860156, 0.0, 0.0], [0.03476888878640645, 0.0014716437104211866, -0.001089839263812481, 0.0, 72.96309782079256, 0.0], [0.0009706168399407817, -0.001008342966930374, -0.0019597428850070984, 0.0, 0.0, 33.76921497520873]], 'compliance_tensor': [[14.9, -2.3, -8.3, -0.0, 0.0, 0.0], [-2.3, 10.0, -2.6, 0.0, 0.0, 0.0], [-8.3, -2.6, 14.5, 0.0, 0.0, 0.0], [-0.0, 0.0, 0.0, 29.6, 0.0, 0.0], [0.0, 0.0, 0.0, 0.0, 13.7, 0.0], [0.0, 0.0, 0.0, 0.0, 0.0, 20.6]], 'warnings': [], 'nsites': 8}",0.0,41.0,79.0,0.87,0.28,104.96000000000001
257,mp-23486,RbNiCl3,"{'Rb': 1.0, 'Ni': 1.0, 'Cl': 3.0}",0.20931236907951592,3.24640489873658,"{'G_Reuss': 3.0, 'G_VRH': 5.0, 'G_Voigt': 8.0, 'G_Voigt_Reuss_Hill': 5.0, 'K_Reuss': 17.0, 'K_VRH': 18.0, 'K_Voigt': 18.0, 'K_Voigt_Reuss_Hill': 18.0, 'elastic_anisotropy': 10.05, 'elastic_tensor': [[29.0, 11.0, 8.0, 0.0, 0.0, 0.0], [11.0, 29.0, 8.0, 0.0, 0.0, 0.0], [8.0, 8.0, 51.0, 0.0, 0.0, 0.0], [0.0, 0.0, 0.0, 1.0, 0.0, 0.0], [0.0, 0.0, 0.0, 0.0, 1.0, 0.0], [0.0, 0.0, 0.0, 0.0, 0.0, 9.0]], 'homogeneous_poisson': 0.37, 'poisson_ratio': 0.37, 'universal_anisotropy': 10.05, 'elastic_tensor_original': [[28.295560667533895, 10.074658009172937, 7.1859373969452145, 0.0, 0.0, 0.0], [10.772584257929816, 29.631797555509884, 8.01032995439155, 0.0, 0.0, 0.0], [8.84644536248835, 8.846443422855652, 51.49417620720982, 0.0, 0.0, 0.0], [0.00017641338936865772, 0.0001853900181681605, 0.00017060004542337478, 1.307350215393824, 0.0, 0.0], [-0.0021221480725597723, -0.002069111454063519, -0.0020325281539569327, 0.0, 1.1152763970506392, 0.0], [0.0001897873945550905, 0.00014090403310651684, 0.0001518172817041301, 0.0, 0.0, 8.973015947220246]], 'compliance_tensor': [[41.0, -13.8, -4.3, -0.0, -0.0, 0.0], [-13.8, 41.0, -4.3, -0.0, 0.0, 0.0], [-4.3, -4.3, 20.8, 0.0, -0.0, -0.0], [-0.0, 0.0, 0.0, 825.6, 0.0, 0.0], [-0.0, -0.0, -0.0, 0.0, 825.6, 0.0], [0.0, 0.0, -0.0, 0.0, 0.0, 109.6]], 'warnings': [], 'nsites': 10}",0.0,5.0,18.0,10.05,0.37,13.700000000000001
258,mp-28927,Ba(NiP2)2,"{'Ba': 1.0, 'Ni': 2.0, 'P': 4.0}",0.16024581155597237,5.027546623348533,"{'G_Reuss': -47.0, 'G_VRH': -4.0, 'G_Voigt': 40.0, 'G_Voigt_Reuss_Hill': -4.0, 'K_Reuss': 97.0, 'K_VRH': 98.0, 'K_Voigt': 98.0, 'K_Voigt_Reuss_Hill': 98.0, 'elastic_anisotropy': -9.24, 'elastic_tensor': [[149.0, 66.0, 66.0, 0.0, 0.0, 0.0], [66.0, 111.0, 122.0, 0.0, 0.0, 0.0], [66.0, 122.0, 111.0, 0.0, 0.0, 0.0], [0.0, 0.0, 0.0, 43.0, 0.0, 0.0], [0.0, 0.0, 0.0, 0.0, 58.0, 0.0], [0.0, 0.0, 0.0, 0.0, 0.0, 58.0]], 'homogeneous_poisson': 0.52, 'poisson_ratio': 0.52, 'universal_anisotropy': -9.24, 'elastic_tensor_original': [[110.94812303815701, 121.61386678254853, 67.62916805765728, 0.0, 0.0, 0.0], [121.6151698848331, 110.9497486579211, 67.62987612268313, 0.0, 0.0, 0.0], [65.07448462414249, 65.07448462414249, 148.69992978361742, 0.0, 0.0, 0.0], [-0.000724037796619611, -0.0009719713877705193, -0.001026618051831898, 58.353232678970244, 0.0, 0.0], [-0.0005396924534006504, 0.00031650135512445806, 4.100472781078491e-05, 0.0, 58.35323712225495, 0.0], [-0.00010657664614895227, -0.0005991267231335945, -0.00038206998670167383, 0.0, 0.0, 42.63031987803764]], 'compliance_tensor': [[9.0, -2.6, -2.6, -0.0, 0.0, -0.0], [-2.6, -44.0, 49.8, -0.0, -0.0, -0.0], [-2.6, 49.8, -44.0, 0.0, 0.0, 0.0], [-0.0, -0.0, 0.0, 23.5, 0.0, -0.0], [0.0, -0.0, 0.0, 0.0, 17.1, -0.0], [-0.0, -0.0, 0.0, -0.0, -0.0, 17.1]], 'warnings': ['Elastic tensor has a negative eigenvalue', 'One or more K, G below 2 GPa'], 'nsites': 7}",0.42522285714330366,-4.0,98.0,-9.24,0.52,-12.16
259,mp-2909,HoAlNi,"{'Ho': 1.0, 'Al': 1.0, 'Ni': 1.0}",0.14343220033957796,7.740538637562048,"{'G_Reuss': 20.0, 'G_VRH': 30.0, 'G_Voigt': 40.0, 'G_Voigt_Reuss_Hill': 30.0, 'K_Reuss': 70.0, 'K_VRH': 73.0, 'K_Voigt': 77.0, 'K_Voigt_Reuss_Hill': 73.0, 'elastic_anisotropy': 5.0, 'elastic_tensor': [[108.0, 34.0, 76.0, 0.0, 0.0, 0.0], [34.0, 108.0, 76.0, 0.0, 0.0, 0.0], [76.0, 76.0, 102.0, 0.0, 0.0, 0.0], [0.0, 0.0, 0.0, 59.0, 0.0, 0.0], [0.0, 0.0, 0.0, 0.0, 59.0, 0.0], [0.0, 0.0, 0.0, 0.0, 0.0, 37.0]], 'homogeneous_poisson': 0.32, 'poisson_ratio': 0.32, 'universal_anisotropy': 5.0, 'elastic_tensor_original': [[107.14010851316483, 33.045467384446475, 68.96073634722565, 0.0, 0.0, -2.7999629036171813e-06], [35.64559685529293, 109.0444510152538, 68.90527027093657, 0.0, 0.0, -9.000096716985783e-06], [83.5370321382464, 83.53705753881705, 101.83796328593205, 0.0, 0.0, -7.000157265137795e-06], [0.0, 0.0, 0.0, 59.29119962636347, -4.999999281709661e-06, 0.0], [0.0, 0.0, 0.0, 0.0, 59.58875513120253, 0.0], [-6.286818592389532e-06, 0.0, 0.0, 0.0, 0.0, 37.65566872395487]], 'compliance_tensor': [[24.37661280977224, 10.959022858140457, -26.45195280591942, 0.0, 0.0, 4.0698070581100156e-06], [10.959022858140457, 24.376609270002724, -26.45195088535276, 0.0, 0.0, 4.069806763292711e-06], [-26.451952805919422, -26.451950885352765, 49.422928435808124, 0.0, 0.0, -4.416296270212662e-06], [0.0, 0.0, 0.0, 16.823693542709137, 1.4044033155225693e-06, 0.0], [0.0, 0.0, 0.0, 1.4044033155225693e-06, 16.823694764207886, 0.0], [4.069807054245602e-06, 4.069806762946105e-06, -4.416296267060328e-06, 0.0, 0.0, 26.8351763634946]], 'warnings': ['Structure contains a rare earth element'], 'nsites': 9}",0.0,30.0,73.0,5.0,0.32,79.2
260,mp-2924,Ho(SiNi)2,"{'Ho': 1.0, 'Si': 2.0, 'Ni': 2.0}",0.127125809553636,7.569765205192444,"{'G_Reuss': 70.0, 'G_VRH': 72.0, 'G_Voigt': 73.0, 'G_Voigt_Reuss_Hill': 72.0, 'K_Reuss': 144.0, 'K_VRH': 144.0, 'K_Voigt': 145.0, 'K_Voigt_Reuss_Hill': 144.0, 'elastic_anisotropy': 0.19, 'elastic_tensor': [[239.0, 77.0, 108.0, 0.0, 0.0, 0.0], [77.0, 239.0, 108.0, 0.0, 0.0, 0.0], [108.0, 108.0, 236.0, 0.0, 0.0, 0.0], [0.0, 0.0, 0.0, 85.0, 0.0, 0.0], [0.0, 0.0, 0.0, 0.0, 85.0, 0.0], [0.0, 0.0, 0.0, 0.0, 0.0, 55.0]], 'homogeneous_poisson': 0.29, 'poisson_ratio': 0.29, 'universal_anisotropy': 0.19, 'elastic_tensor_original': [[239.488792062552, 76.99370565604983, 104.82796585083123, 2.1999658393393665e-05, 0.0, 0.0], [76.99370565570008, 239.4887920614688, 104.82796585035506, 2.2231410450712915e-05, -2.19996583927207e-05, 0.0], [111.13931048307884, 111.13931048307884, 235.7754785839259, 4.9199967986213064e-05, -4.9199967986213064e-05, 0.0], [0.0, 1.7940389949700708e-05, 0.0, 84.59420374932549, -6.500017019770571e-07, -8.970222552640029e-06], [-1.7940389948736547e-05, 0.0, 0.0, 6.50001701959786e-07, 84.5942037493255, 8.970165716899512e-06], [0.5498720650793906, -0.5498720650861065, 0.0, 9.71437252132563e-07, 0.0, 54.98421912178573]], 'compliance_tensor': [[5.4, -0.8, -2.1, -0.0, 0.0, 0.0], [-0.8, 5.4, -2.1, 0.0, -0.0, 0.0], [-2.1, -2.1, 6.2, 0.0, 0.0, 0.0], [-0.0, 0.0, 0.0, 11.8, 0.0, 0.0], [0.0, -0.0, 0.0, 0.0, 11.8, 0.0], [0.0, 0.0, 0.0, 0.0, 0.0, 18.2]], 'warnings': ['Contains a rare earth element'], 'nsites': 5}",0.0,72.0,144.0,0.19,0.29,185.76
261,mp-30457,LuNiBi,"{'Lu': 1.0, 'Ni': 1.0, 'Bi': 1.0}",0.16073238177997123,11.20576729634767,"{'G_Reuss': 50.0, 'G_VRH': 50.0, 'G_Voigt': 50.0, 'G_Voigt_Reuss_Hill': 50.0, 'K_Reuss': 78.0, 'K_VRH': 78.0, 'K_Voigt': 78.0, 'K_Voigt_Reuss_Hill': 78.0, 'elastic_anisotropy': 0.09, 'elastic_tensor': [[156.0, 39.0, 39.0, 0.0, 0.0, 0.0], [39.0, 156.0, 39.0, 0.0, 0.0, 0.0], [39.0, 39.0, 156.0, 0.0, 0.0, 0.0], [0.0, 0.0, 0.0, 45.0, 0.0, 0.0], [0.0, 0.0, 0.0, 0.0, 45.0, 0.0], [0.0, 0.0, 0.0, 0.0, 0.0, 45.0]], 'homogeneous_poisson': 0.23, 'poisson_ratio': 0.23, 'universal_anisotropy': 0.09, 'elastic_tensor_original': [[155.93779542642704, 38.528103769205394, 38.528103769205394, 0.0, 0.0, 0.0], [38.528103769205394, 155.93779542642704, 38.528103769205394, 0.0, 0.0, 0.0], [38.528103769205394, 38.528103769205394, 155.93779542642704, 0.0, 0.0, 0.0], [0.0, 0.0, 0.0, 44.92344075021701, 0.0, 0.0], [0.0, 0.0, 0.0, 0.0, 44.92344075021701, 0.0], [0.0, 0.0, 0.0, 0.0, 0.0, 44.92344075021701]], 'compliance_tensor': [[7.1, -1.4, -1.4, -0.0, 0.0, -0.0], [-1.4, 7.1, -1.4, 0.0, -0.0, 0.0], [-1.4, -1.4, 7.1, 0.0, 0.0, 0.0], [-0.0, 0.0, 0.0, 22.3, 0.0, 0.0], [0.0, -0.0, 0.0, 0.0, 22.3, 0.0], [-0.0, 0.0, 0.0, 0.0, 0.0, 22.3]], 'warnings': ['Contains a rare earth element'], 'nsites': 3}",0.0,50.0,78.0,0.09,0.23,123.0
262,mp-30657,TiGaNi2,"{'Ti': 1.0, 'Ga': 1.0, 'Ni': 2.0}",0.1533816924200279,7.652008774211659,"{'G_Reuss': 22.0, 'G_VRH': 40.0, 'G_Voigt': 58.0, 'G_Voigt_Reuss_Hill': 40.0, 'K_Reuss': 166.0, 'K_VRH': 166.0, 'K_Voigt': 166.0, 'K_Voigt_Reuss_Hill': 166.0, 'elastic_anisotropy': 7.98, 'elastic_tensor': [[180.0, 159.0, 159.0, 0.0, 0.0, 0.0], [159.0, 180.0, 159.0, 0.0, 0.0, 0.0], [159.0, 159.0, 180.0, 0.0, 0.0, 0.0], [0.0, 0.0, 0.0, 90.0, 0.0, 0.0], [0.0, 0.0, 0.0, 0.0, 90.0, 0.0], [0.0, 0.0, 0.0, 0.0, 0.0, 90.0]], 'homogeneous_poisson': 0.39, 'poisson_ratio': 0.39, 'universal_anisotropy': 7.98, 'elastic_tensor_original': [[180.02255147821344, 158.87790846202324, 158.87790846202324, 0.0, 0.0, 0.0], [158.88680279639084, 180.03168588981458, 158.88680279639084, 0.0, 0.0, 0.0], [158.8683761112989, 158.8683761112989, 180.0132610916969, 0.0, 0.0, 0.0], [-8.870304949029956e-05, -7.90697531417627e-05, -7.020308251957079e-05, 90.19319375901301, 0.0, 0.0], [-4.226487034163107e-06, 1.5413504216526367e-05, -2.0396486197498158e-05, 0.0, 90.19332571237638, 0.0], [-0.00020896030242516892, -0.0002056303048785798, -0.000212436978596011, 0.0, 0.0, 90.19324273879477]], 'compliance_tensor': [[32.2, -15.1, -15.1, -0.0, 0.0, 0.0], [-15.1, 32.2, -15.1, 0.0, -0.0, 0.0], [-15.1, -15.1, 32.2, 0.0, 0.0, -0.0], [-0.0, 0.0, 0.0, 11.1, -0.0, -0.0], [0.0, -0.0, 0.0, -0.0, 11.1, -0.0], [0.0, 0.0, -0.0, -0.0, -0.0, 11.1]], 'warnings': [], 'nsites': 4}",0.0,40.0,166.0,7.98,0.39,111.20000000000002