,mp_id,Formula,Composition,IPF,Density,Elastic_Tensor,E_above_Hull,G_VRH,K_VRH,Elastic_Anisotropy,poisson_ratio,Y_Modulus
106,mp-3250,Ni2SbTe2,"{'Ni': 2.0, 'Sb': 1.0, 'Te': 2.0}",0.22479555300698034,7.716517061477002,"{'G_Reuss': 18.0, 'G_VRH': 20.0, 'G_Voigt': 23.0, 'G_Voigt_Reuss_Hill': 20.0, 'K_Reuss': 29.0, 'K_VRH': 41.0, 'K_Voigt': 53.0, 'K_Voigt_Reuss_Hill': 41.0, 'elastic_anisotropy': 2.14, 'elastic_tensor': [[119.0, 60.0, 22.0, 0.0, 0.0, 0.0], [60.0, 119.0, 22.0, 0.0, 0.0, 0.0], [22.0, 22.0, 30.0, 0.0, 0.0, 0.0], [0.0, 0.0, 0.0, 14.0, 0.0, 0.0], [0.0, 0.0, 0.0, 0.0, 14.0, 0.0], [0.0, 0.0, 0.0, 0.0, 0.0, 30.0]], 'homogeneous_poisson': 0.29, 'poisson_ratio': 0.29, 'universal_anisotropy': 2.14, 'elastic_tensor_original': [[119.00447891255438, 61.47765604557236, 25.653202164247194, 0.0, 0.0, 0.0], [59.93857523080695, 117.26223844393746, 24.63966168264465, 0.0, 0.0, 0.0], [18.57514658010589, 18.575139881199927, 29.85914736774718, 0.0, 0.0, 0.0], [0.021716155540118624, -0.10135237920410832, -0.10982783307482527, 14.271678633339896, 0.0, 0.0], [0.334512075666587, -0.35526654543449426, -0.10784382782122791, 0.0, 14.398595693019775, 0.0], [-0.0021103955648540166, -0.0017603734506342584, -0.0017706516116391426, 0.0, 0.0, 30.74405664257071]], 'compliance_tensor': [[11.8, -5.0, -5.0, 0.0, 0.0, 0.0], [-5.0, 11.8, -5.0, 0.0, 0.0, 0.0], [-5.0, -5.0, 40.8, 0.0, -0.0, -0.0], [-0.0, 0.0, 0.0, 69.8, 0.0, 0.0], [0.0, 0.0, -0.0, 0.0, 69.8, 0.0], [0.0, 0.0, -0.0, 0.0, 0.0, 33.6]], 'warnings': [], 'nsites': 10}",0.0,20.0,41.0,2.14,0.29,51.6
107,mp-3289,LaMgNi4,"{'La': 1.0, 'Mg': 1.0, 'Ni': 4.0}",0.1793505452251826,7.317757437467369,"{'G_Reuss': 42.0, 'G_VRH': 43.0, 'G_Voigt': 44.0, 'G_Voigt_Reuss_Hill': 43.0, 'K_Reuss': 106.0, 'K_VRH': 106.0, 'K_Voigt': 106.0, 'K_Voigt_Reuss_Hill': 106.0, 'elastic_anisotropy': 0.19, 'elastic_tensor': [[152.0, 83.0, 83.0, 0.0, 0.0, 0.0], [83.0, 152.0, 83.0, 0.0, 0.0, 0.0], [83.0, 83.0, 152.0, 0.0, 0.0, 0.0], [0.0, 0.0, 0.0, 51.0, 0.0, 0.0], [0.0, 0.0, 0.0, 0.0, 51.0, 0.0], [0.0, 0.0, 0.0, 0.0, 0.0, 51.0]], 'homogeneous_poisson': 0.32, 'poisson_ratio': 0.32, 'universal_anisotropy': 0.19, 'elastic_tensor_original': [[149.24766571735472, 81.22730677162947, 81.22730677162947, 0.0, 0.0, 0.0], [83.32434488010462, 151.53571829796877, 83.32434488010462, 0.0, 0.0, 0.0], [85.42138298857977, 85.42138298857977, 153.8237708785828, 0.0, 0.0, 0.0], [0.0, 0.0, 0.0, 50.55252990106064, 0.0, 0.0], [0.0, 0.0, 0.0, 0.0, 50.55252990106064, 0.0], [0.0, 0.0, 0.0, 0.0, 0.0, 50.55252990106064]], 'compliance_tensor': [[10.8, -3.8, -3.8, 0.0, -0.0, -0.0], [-3.8, 10.8, -3.8, -0.0, 0.0, 0.0], [-3.8, -3.8, 10.8, -0.0, -0.0, -0.0], [0.0, -0.0, -0.0, 19.8, 0.0, -0.0], [-0.0, 0.0, -0.0, 0.0, 19.8, -0.0], [-0.0, 0.0, -0.0, -0.0, -0.0, 19.8]], 'warnings': ['Contains a rare earth element'], 'nsites': 6}",0.0,43.0,106.0,0.19,0.32,113.52000000000001
108,mp-3363,Sc2Ni2Sn,"{'Sc': 2.0, 'Ni': 2.0, 'Sn': 1.0}",0.1354121259161108,6.321145891376837,"{'G_Reuss': 31.0, 'G_VRH': 35.0, 'G_Voigt': 39.0, 'G_Voigt_Reuss_Hill': 35.0, 'K_Reuss': 102.0, 'K_VRH': 102.0, 'K_Voigt': 103.0, 'K_Voigt_Reuss_Hill': 102.0, 'elastic_anisotropy': 1.3, 'elastic_tensor': [[113.0, 91.0, 91.0, 0.0, 0.0, 0.0], [91.0, 156.0, 67.0, 0.0, 0.0, 0.0], [91.0, 67.0, 156.0, 0.0, 0.0, 0.0], [0.0, 0.0, 0.0, 39.0, 0.0, 0.0], [0.0, 0.0, 0.0, 0.0, 49.0, 0.0], [0.0, 0.0, 0.0, 0.0, 0.0, 49.0]], 'homogeneous_poisson': 0.35, 'poisson_ratio': 0.35, 'universal_anisotropy': 1.3, 'elastic_tensor_original': [[156.26590863288243, 66.697231294478, 92.39790836778752, 0.0, 0.0, 0.0], [66.73584774661296, 156.30908511181636, 92.43288592553802, 0.0, 0.0, 0.0], [90.28068304609721, 90.28068304609721, 113.42395369529045, 0.0, 0.0, 0.0], [-0.001950250121016545, -0.0009962367284849997, -0.001210823408467041, 49.05210497710108, 0.0, 0.0], [-0.0011018567350390173, -0.002042910126766092, -0.0013268334156656505, 0.0, 49.052114807101695, 0.0], [-0.0012390169335722574, -0.0012486436023128363, -0.0012683869398996054, 0.0, 0.0, 39.453943942411655]], 'compliance_tensor': [[25.9, -10.6, -10.6, 0.0, 0.0, 0.0], [-10.6, 12.2, 1.0, 0.0, -0.0, -0.0], [-10.6, 1.0, 12.2, 0.0, 0.0, -0.0], [0.0, 0.0, 0.0, 25.3, 0.0, 0.0], [0.0, -0.0, 0.0, 0.0, 20.4, -0.0], [0.0, -0.0, -0.0, 0.0, -0.0, 20.4]], 'warnings': [], 'nsites': 10}",0.0,35.0,102.0,1.3,0.35,94.5
109,mp-3469,ZrNi2Sb,"{'Zr': 1.0, 'Ni': 2.0, 'Sb': 1.0}",0.1310352963860072,8.502891707620904,"{'G_Reuss': 60.0, 'G_VRH': 60.0, 'G_Voigt': 60.0, 'G_Voigt_Reuss_Hill': 60.0, 'K_Reuss': 143.0, 'K_VRH': 145.0, 'K_Voigt': 147.0, 'K_Voigt_Reuss_Hill': 145.0, 'elastic_anisotropy': 0.1, 'elastic_tensor': [[238.0, 132.0, 97.0, 0.0, 0.0, 0.0], [132.0, 238.0, 97.0, 0.0, 0.0, 0.0], [97.0, 97.0, 195.0, 0.0, 0.0, 0.0], [0.0, 0.0, 0.0, 67.0, 0.0, 0.0], [0.0, 0.0, 0.0, 0.0, 67.0, 0.0], [0.0, 0.0, 0.0, 0.0, 0.0, 53.0]], 'homogeneous_poisson': 0.32, 'poisson_ratio': 0.32, 'universal_anisotropy': 0.1, 'elastic_tensor_original': [[239.36137223559217, 131.9440690098404, 95.60986366108692, 0.0, 0.0, 0.0], [130.48263359829187, 238.5895106287987, 95.19442452644411, 0.0, 0.0, 0.0], [97.853696267858, 97.8537491881711, 195.04157843946385, 0.0, 0.0, 0.0], [-0.00010008671600770929, -0.0007622603757807925, -0.00022887011282882302, 66.8417773484762, 0.0, 0.0], [0.0001355968964772156, 0.00023623373370438078, -0.0004909374987118423, 0.0, 66.85778674449593, 0.0], [2.499364546993323e-05, 8.961047194640774e-05, 0.0002675235132700368, 0.0, 0.0, 52.55992969964076]], 'compliance_tensor': [[6.5, -2.9, -1.8, -0.0, 0.0, 0.0], [-2.9, 6.5, -1.8, -0.0, -0.0, 0.0], [-1.8, -1.8, 6.9, 0.0, -0.0, -0.0], [-0.0, 0.0, 0.0, 15.0, 0.0, 0.0], [0.0, -0.0, -0.0, 0.0, 15.0, 0.0], [0.0, 0.0, -0.0, -0.0, 0.0, 18.8]], 'warnings': [], 'nsites': 8}",0.0,60.0,145.0,0.1,0.32,158.4
110,mp-4054,YAl3Ni,"{'Y': 1.0, 'Al': 3.0, 'Ni': 1.0}",0.1168070755914247,4.3146910287740186,"{'G_Reuss': 58.0, 'G_VRH': 60.0, 'G_Voigt': 61.0, 'G_Voigt_Reuss_Hill': 60.0, 'K_Reuss': 93.0, 'K_VRH': 93.0, 'K_Voigt': 93.0, 'K_Voigt_Reuss_Hill': 93.0, 'elastic_anisotropy': 0.22, 'elastic_tensor': [[173.0, 51.0, 48.0, 0.0, 0.0, 0.0], [51.0, 164.0, 64.0, 0.0, 0.0, 0.0], [48.0, 64.0, 174.0, 0.0, 0.0, 0.0], [0.0, 0.0, 0.0, 80.0, 0.0, 0.0], [0.0, 0.0, 0.0, 0.0, 65.0, 0.0], [0.0, 0.0, 0.0, 0.0, 0.0, 43.0]], 'homogeneous_poisson': 0.24, 'poisson_ratio': 0.24, 'universal_anisotropy': 0.22, 'elastic_tensor_original': [[174.06912653605295, 49.596202658678145, 64.39620210439809, 0.0, 0.0, 0.0], [45.99799336955111, 173.33535576959991, 50.314191402709305, 0.0, 0.0, 0.0], [62.61589718453163, 51.74012999226014, 164.02873770266356, 0.0, 0.0, 0.0], [7.183319776102429e-05, 7.56765342598166e-05, 9.04265224984677e-05, 43.44600143757369, 0.0, 0.0], [0.006194835373460187, 0.006336925342127227, 0.006231732315631647, 0.0, 79.73320115202509, 0.0], [-0.001665391271758202, -0.001674091165698133, -0.0008543587207594409, 0.0, 0.0, 65.48264028937314]], 'compliance_tensor': [[6.6, -1.6, -1.2, 0.0, 0.0, 0.0], [-1.6, 7.5, -2.3, 0.0, -0.0, 0.0], [-1.2, -2.3, 6.9, 0.0, 0.0, 0.0], [0.0, 0.0, 0.0, 12.5, 0.0, 0.0], [0.0, -0.0, 0.0, 0.0, 15.3, 0.0], [0.0, 0.0, 0.0, 0.0, 0.0, 23.0]], 'warnings': [], 'nsites': 20}",0.0,60.0,93.0,0.22,0.24,148.8
111,mp-4302,Nd(NiGe)2,"{'Nd': 1.0, 'Ni': 2.0, 'Ge': 2.0}",0.18786750768826946,7.96754817512225,"{'G_Reuss': 50.0, 'G_VRH': 52.0, 'G_Voigt': 54.0, 'G_Voigt_Reuss_Hill': 52.0, 'K_Reuss': 102.0, 'K_VRH': 102.0, 'K_Voigt': 102.0, 'K_Voigt_Reuss_Hill': 102.0, 'elastic_anisotropy': 0.41, 'elastic_tensor': [[187.0, 38.0, 76.0, 0.0, 0.0, 0.0], [38.0, 187.0, 76.0, 0.0, 0.0, 0.0], [76.0, 76.0, 162.0, 0.0, 0.0, 0.0], [0.0, 0.0, 0.0, 60.0, 0.0, 0.0], [0.0, 0.0, 0.0, 0.0, 60.0, 0.0], [0.0, 0.0, 0.0, 0.0, 0.0, 35.0]], 'homogeneous_poisson': 0.28, 'poisson_ratio': 0.28, 'universal_anisotropy': 0.41, 'elastic_tensor_original': [[187.06161045460104, 38.36751142248992, 75.94499770447027, 0.0, -7.600045603724545e-06, 0.0], [38.36751142249308, 187.06161045460104, 75.94499770447027, -7.60004560328754e-06, -1.5511720488055398e-05, 0.0], [76.75612794095788, 76.75612794095788, 162.08627005655947, 0.0, 0.0, 0.0], [0.0, -1.2356093881329192e-05, 0.0, 60.49538695876137, -3.1676826570004245e-07, -6.1780227288829686e-06], [-1.2356093880593214e-05, 0.0, 0.0, 3.167682656997159e-07, 60.49538695876137, -6.178073385990502e-06], [0.34761310903562836, -0.34761310903146553, 0.0, 4.0000110356725734e-07, 1.8836544975254365e-08, 34.75972099897255]], 'compliance_tensor': [[6.6, -0.1, -3.1, -0.0, 0.0, 0.0], [-0.1, 6.6, -3.1, 0.0, -0.0, 0.0], [-3.1, -3.1, 9.1, 0.0, 0.0, 0.0], [-0.0, 0.0, 0.0, 16.5, 0.0, 0.0], [0.0, -0.0, 0.0, 0.0, 16.5, 0.0], [0.0, 0.0, 0.0, 0.0, 0.0, 28.8]], 'warnings': ['Contains a rare earth element'], 'nsites': 5}",0.0,52.0,102.0,0.41,0.28,133.12
112,mp-4817,CeAl5Ni2,"{'Ce': 1.0, 'Al': 5.0, 'Ni': 2.0}",0.11368554285849651,4.901765359355607,"{'G_Reuss': 59.0, 'G_VRH': 61.0, 'G_Voigt': 63.0, 'G_Voigt_Reuss_Hill': 61.0, 'K_Reuss': 92.0, 'K_VRH': 94.0, 'K_Voigt': 95.0, 'K_Voigt_Reuss_Hill': 94.0, 'elastic_anisotropy': 0.31, 'elastic_tensor': [[179.0, 72.0, 67.0, 0.0, 0.0, 0.0], [72.0, 149.0, 36.0, 0.0, 0.0, 0.0], [67.0, 36.0, 174.0, 0.0, 0.0, 0.0], [0.0, 0.0, 0.0, 65.0, 0.0, 0.0], [0.0, 0.0, 0.0, 0.0, 86.0, 0.0], [0.0, 0.0, 0.0, 0.0, 0.0, 53.0]], 'homogeneous_poisson': 0.23, 'poisson_ratio': 0.23, 'universal_anisotropy': 0.31, 'elastic_tensor_original': [[179.2526803683211, 76.32772793073562, 71.9491901331838, 7.99994408684232e-06, 0.0, 0.0], [67.67314561074775, 148.88428842588522, 34.27386819622769, 1.560001037587548e-05, 0.0, 0.0], [62.93799050888967, 37.6956087907895, 174.1512565079293, 4.000080646646816e-06, 0.0, 0.0], [0.0, 0.0, -1.372340082713602e-07, 65.38435793917843, 0.0, 0.0], [0.0, 0.0, 0.0, -5.984430870159575e-09, 86.36749607354054, 0.0], [0.0, 0.0, 0.0, -4.0358529742915985e-07, -5.596115987276805e-08, 53.324731141247184]], 'compliance_tensor': [[7.7, -3.2, -2.3, -0.0, -0.0, -0.0], [-3.2, 8.4, -0.5, 0.0, 0.0, -0.0], [-2.3, -0.5, 6.8, 0.0, 0.0, 0.0], [-0.0, 0.0, 0.0, 15.3, -0.0, 0.0], [-0.0, 0.0, 0.0, -0.0, 11.6, 0.0], [-0.0, -0.0, 0.0, 0.0, 0.0, 18.8]], 'warnings': ['Contains a rare earth element'], 'nsites': 8}",0.0,61.0,94.0,0.31,0.23,150.06
113,mp-7707,Zr(SiNi)2,"{'Zr': 1.0, 'Si': 2.0, 'Ni': 2.0}",0.10690974859248434,6.370888989891007,"{'G_Reuss': 80.0, 'G_VRH': 82.0, 'G_Voigt': 83.0, 'G_Voigt_Reuss_Hill': 82.0, 'K_Reuss': 170.0, 'K_VRH': 171.0, 'K_Voigt': 172.0, 'K_Voigt_Reuss_Hill': 171.0, 'elastic_anisotropy': 0.16, 'elastic_tensor': [[260.0, 101.0, 137.0, 0.0, 0.0, 0.0], [101.0, 260.0, 137.0, 0.0, 0.0, 0.0], [137.0, 137.0, 274.0, 0.0, 0.0, 0.0], [0.0, 0.0, 0.0, 94.0, 0.0, 0.0], [0.0, 0.0, 0.0, 0.0, 94.0, 0.0], [0.0, 0.0, 0.0, 0.0, 0.0, 88.0]], 'homogeneous_poisson': 0.29, 'poisson_ratio': 0.29, 'universal_anisotropy': 0.16, 'elastic_tensor_original': [[260.175618387903, 100.73942286335858, 136.1505213463765, 0.0, 0.0, 0.0], [100.73859999603435, 260.1767866034028, 136.1502262280864, 0.0, 0.0, 0.0], [138.10123439062738, 138.10123439062738, 273.8385912269247, 0.0, 0.0, 0.0], [-0.0058275686980617004, -0.005222270923517458, -0.004801789771505254, 93.56485856467323, 0.0, 0.0], [0.0032659180250117006, 0.0035623627633388933, 0.0033037780126198455, 0.0, 93.56501765858671, 0.0], [-0.0012937698506006554, -0.001325989851271852, -0.0013519298427951815, 0.0, 0.0, 87.85381705519895]], 'compliance_tensor': [[5.4, -0.9, -2.2, 0.0, 0.0, 0.0], [-0.9, 5.4, -2.2, 0.0, 0.0, 0.0], [-2.2, -2.2, 5.9, -0.0, 0.0, 0.0], [0.0, 0.0, -0.0, 10.7, 0.0, 0.0], [0.0, 0.0, 0.0, 0.0, 10.7, 0.0], [0.0, 0.0, 0.0, 0.0, 0.0, 11.4]], 'warnings': [], 'nsites': 5}",0.0,82.0,171.0,0.16,0.29,211.56
114,mp-774,CaNi5,"{'Ca': 1.0, 'Ni': 5.0}",0.17899908947254245,6.7475754939751456,"{'G_Reuss': 65.0, 'G_VRH': 65.0, 'G_Voigt': 66.0, 'G_Voigt_Reuss_Hill': 65.0, 'K_Reuss': 124.0, 'K_VRH': 125.0, 'K_Voigt': 126.0, 'K_Voigt_Reuss_Hill': 125.0, 'elastic_anisotropy': 0.11, 'elastic_tensor': [[195.0, 79.0, 80.0, 0.0, 0.0, -1.0], [79.0, 195.0, 80.0, 0.0, 0.0, -1.0], [80.0, 80.0, 265.0, 0.0, 0.0, -1.0], [0.0, 0.0, 0.0, 66.0, -0.0, 0.0], [0.0, 0.0, 0.0, -0.0, 66.0, 0.0], [-1.0, -1.0, -1.0, 0.0, 0.0, 58.0]], 'homogeneous_poisson': 0.28, 'poisson_ratio': 0.28, 'universal_anisotropy': 0.11, 'elastic_tensor_original': [[191.00654278497473, 75.46088386732926, 76.33518137269905, 0.0, 0.0, 0.0], [83.04156497454899, 199.70032904455817, 85.02512341442247, 0.0, 0.0, 0.0], [79.99064766632371, 79.9906165912746, 264.69162280094133, 0.0, 0.0, 0.0], [-8.935678990958e-05, 0.0005251070461217045, 0.00029169387546872663, 66.32205252290339, 0.0, 0.0], [0.0023866297063279292, 0.002531256759190661, 0.0022347559674486665, 0.0, 66.26434118169132, 0.0], [0.0003670109644915758, -0.00016489043332894407, 1.7176711805717185e-05, 0.0, 0.0, 57.833523398173476]], 'compliance_tensor': [[6.5, -2.1, -1.3, 0.0, -0.0, 0.1], [-2.1, 6.5, -1.3, 0.0, -0.0, 0.1], [-1.3, -1.3, 4.6, -0.0, 0.0, 0.0], [0.0, 0.0, 0.0, 15.1, 0.0, -0.0], [-0.0, -0.0, 0.0, 0.0, 15.1, -0.0], [0.1, 0.1, 0.0, 0.0, -0.0, 17.3]], 'warnings': [], 'nsites': 6}",0.0,65.0,125.0,0.11,0.28,166.4
115,mp-815,GaNi3,"{'Ga': 1.0, 'Ni': 3.0}",0.15177265164651996,8.937908756262605,"{'G_Reuss': 70.0, 'G_VRH': 77.0, 'G_Voigt': 85.0, 'G_Voigt_Reuss_Hill': 77.0, 'K_Reuss': 180.0, 'K_VRH': 180.0, 'K_Voigt': 180.0, 'K_Voigt_Reuss_Hill': 180.0, 'elastic_anisotropy': 1.12, 'elastic_tensor': [[239.0, 150.0, 150.0, 0.0, 0.0, 0.0], [150.0, 239.0, 150.0, 0.0, 0.0, 0.0], [150.0, 150.0, 239.0, 0.0, 0.0, 0.0], [0.0, 0.0, 0.0, 112.0, 0.0, 0.0], [0.0, 0.0, 0.0, 0.0, 112.0, 0.0], [0.0, 0.0, 0.0, 0.0, 0.0, 112.0]], 'homogeneous_poisson': 0.31, 'poisson_ratio': 0.31, 'universal_anisotropy': 1.12, 'elastic_tensor_original': [[239.0140821344474, 150.39652661297805, 150.39652661297805, 0.0, 0.0, 0.0], [150.39423390874532, 239.00929757868082, 150.39423390874532, 0.0, 0.0, 0.0], [150.39905438795748, 150.39905438795748, 239.0136674031778, 0.0, 0.0, 0.0], [0.00010838252066332014, -0.0001821266956264793, 0.000345629366525876, 112.3807204405892, 0.0, 0.0], [0.00023459773593301358, 3.7442161359292056e-06, 0.0006171613780761161, 0.0, 112.38069142521009, 0.0], [-0.0006147139848739109, -0.00046869128488850995, -0.00044942073874692883, 0.0, 0.0, 112.38104709356793]], 'compliance_tensor': [[8.1, -3.1, -3.1, 0.0, 0.0, -0.0], [-3.1, 8.1, -3.1, 0.0, 0.0, 0.0], [-3.1, -3.1, 8.1, 0.0, -0.0, -0.0], [0.0, 0.0, 0.0, 8.9, 0.0, 0.0], [0.0, 0.0, -0.0, 0.0, 8.9, -0.0], [-0.0, 0.0, -0.0, 0.0, -0.0, 8.9]], 'warnings': [], 'nsites': 4}",0.0,77.0,180.0,1.12,0.31,201.74
116,mp-865093,TiZnNi2,"{'Ti': 1.0, 'Zn': 1.0, 'Ni': 2.0}",0.17505037660259753,7.587307353396716,"{'G_Reuss': 38.0, 'G_VRH': 50.0, 'G_Voigt': 62.0, 'G_Voigt_Reuss_Hill': 50.0, 'K_Reuss': 169.0, 'K_VRH': 169.0, 'K_Voigt': 169.0, 'K_Voigt_Reuss_Hill': 169.0, 'elastic_anisotropy': 3.21, 'elastic_tensor': [[196.0, 156.0, 156.0, 0.0, 0.0, 0.0], [156.0, 196.0, 156.0, 0.0, 0.0, 0.0], [156.0, 156.0, 196.0, 0.0, 0.0, 0.0], [0.0, 0.0, 0.0, 90.0, 0.0, 0.0], [0.0, 0.0, 0.0, 0.0, 90.0, 0.0], [0.0, 0.0, 0.0, 0.0, 0.0, 90.0]], 'homogeneous_poisson': 0.37, 'poisson_ratio': 0.37, 'universal_anisotropy': 3.21, 'elastic_tensor_original': [[194.93641894763266, 154.34644164557898, 154.34644164557898, 0.0, 0.0, 0.0], [154.42528184076494, 195.01474507089873, 154.42528184076494, 0.0, 0.0, 0.0], [157.78532234783236, 157.78532234783236, 197.84829098837594, 0.0, 0.0, 0.0], [0.0026945180148057425, 0.0027402681206142926, 0.002736438120404558, 89.97234606717566, 0.0, 0.0], [-0.00015968012629507045, -8.558678171207429e-05, -0.00014832678989238555, 0.0, 89.97233220379997, 0.0], [-0.002656868078336086, -0.002665174758894198, -0.0025614213063215336, 0.0, 0.0, 89.97231627715583]], 'compliance_tensor': [[17.2, -7.6, -7.6, 0.0, -0.0, -0.0], [-7.6, 17.2, -7.6, -0.0, 0.0, -0.0], [-7.6, -7.6, 17.2, -0.0, -0.0, 0.0], [0.0, -0.0, -0.0, 11.1, -0.0, -0.0], [-0.0, 0.0, -0.0, -0.0, 11.1, -0.0], [-0.0, -0.0, 0.0, -0.0, -0.0, 11.1]], 'warnings': [], 'nsites': 4}",0.0,50.0,169.0,3.21,0.37,137.0
118,mp-867252,LiZn2Ni,"{'Li': 1.0, 'Zn': 2.0, 'Ni': 1.0}",0.20624012985342766,6.431958482925944,"{'G_Reuss': 21.0, 'G_VRH': 35.0, 'G_Voigt': 50.0, 'G_Voigt_Reuss_Hill': 35.0, 'K_Reuss': 86.0, 'K_VRH': 86.0, 'K_Voigt': 86.0, 'K_Voigt_Reuss_Hill': 86.0, 'elastic_anisotropy': 6.85, 'elastic_tensor': [[99.0, 79.0, 79.0, 0.0, 0.0, 0.0], [79.0, 99.0, 79.0, 0.0, 0.0, 0.0], [79.0, 79.0, 99.0, 0.0, 0.0, 0.0], [0.0, 0.0, 0.0, 76.0, 0.0, 0.0], [0.0, 0.0, 0.0, 0.0, 76.0, 0.0], [0.0, 0.0, 0.0, 0.0, 0.0, 76.0]], 'homogeneous_poisson': 0.32, 'poisson_ratio': 0.32, 'universal_anisotropy': 6.85, 'elastic_tensor_original': [[99.06671488138478, 79.00427988806793, 79.00427988806793, 0.0, 0.0, 0.0], [79.00007497064989, 99.06234576526762, 79.00007497064989, 0.0, 0.0, 0.0], [79.00159953043115, 79.00159953043115, 99.06397709163659, 0.0, 0.0, 0.0], [-0.0001088030541165893, -0.00010767972551528954, -0.00010694639111143496, 76.03972987142542, 0.0, 0.0], [0.00019580279960814166, 0.00020558943954384533, 0.000197979456283116, 0.0, 76.03970911810745, 0.0], [0.00012930296353320906, 0.00013173962143603, 0.00013849293574345805, 0.0, 0.0, 76.03972821809498]], 'compliance_tensor': [[34.5, -15.3, -15.3, -0.0, -0.0, 0.0], [-15.3, 34.5, -15.3, 0.0, -0.0, 0.0], [-15.3, -15.3, 34.5, 0.0, 0.0, -0.0], [-0.0, 0.0, 0.0, 13.2, -0.0, -0.0], [-0.0, -0.0, 0.0, -0.0, 13.2, -0.0], [0.0, 0.0, -0.0, -0.0, -0.0, 13.2]], 'warnings': [], 'nsites': 4}",0.0,35.0,86.0,6.85,0.32,92.4
119,mp-924128,HfNiSn,"{'Hf': 1.0, 'Ni': 1.0, 'Sn': 1.0}",0.11661828816218149,10.340458014050487,"{'G_Reuss': 80.0, 'G_VRH': 80.0, 'G_Voigt': 81.0, 'G_Voigt_Reuss_Hill': 80.0, 'K_Reuss': 105.0, 'K_VRH': 105.0, 'K_Voigt': 105.0, 'K_Voigt_Reuss_Hill': 105.0, 'elastic_anisotropy': 0.01, 'elastic_tensor': [[219.0, 48.0, 48.0, 0.0, 0.0, 0.0], [48.0, 219.0, 48.0, 0.0, 0.0, 0.0], [48.0, 48.0, 219.0, 0.0, 0.0, 0.0], [0.0, 0.0, 0.0, 77.0, 0.0, 0.0], [0.0, 0.0, 0.0, 0.0, 77.0, 0.0], [0.0, 0.0, 0.0, 0.0, 0.0, 77.0]], 'homogeneous_poisson': 0.19, 'poisson_ratio': 0.19, 'universal_anisotropy': 0.01, 'elastic_tensor_original': [[218.68610051600834, 48.184596293431284, 48.184612093765914, -2.3600499831002126e-05, -4.3400919180741197e-05, -7.800165198382061e-06], [48.184627786086914, 218.68610051602252, 48.1846278400966, -5.127409348923915e-05, -1.576530883603778e-05, -3.580538172740506e-05], [48.18461209376335, 48.18459629344698, 218.68610051599674, -7.941092448754171e-05, -4.3400919126216215e-05, -7.892134463766688e-06], [0.0, -5.063834530673295e-05, -2.531916485889443e-05, 77.47807968721351, -1.2675277829794135e-05, -1.2659586872977316e-05], [-2.531917995934669e-05, 0.0, -2.5319179678831614e-05, 1.5690946864909608e-08, 77.47807968720932, -2.531918203185011e-05], [-2.531917925396146e-05, 0.0, 0.0, -1.2659591016605e-05, -1.2643904203654776e-05, 77.4780796872052]], 'compliance_tensor': [[5.0, -0.9, -0.9, -0.0, 0.0, 0.0], [-0.9, 5.0, -0.9, 0.0, -0.0, 0.0], [-0.9, -0.9, 5.0, 0.0, 0.0, -0.0], [-0.0, 0.0, 0.0, 12.9, 0.0, 0.0], [0.0, -0.0, 0.0, 0.0, 12.9, 0.0], [0.0, 0.0, -0.0, 0.0, 0.0, 12.9]], 'warnings': [], 'nsites': 3}",0.0,80.0,105.0,0.01,0.19,190.39999999999998