,mp_id,Formula,Composition,IPF,Density,Elastic_Tensor,E_above_Hull,G_VRH,K_VRH,Elastic_Anisotropy,poisson_ratio,Y_Modulus
26,mp-19009,NiO,"{'Ni': 1.0, 'O': 1.0}",0.5376249562707069,6.617519449996231,"{'G_Reuss': 67.0, 'G_VRH': 69.0, 'G_Voigt': 71.0, 'G_Voigt_Reuss_Hill': 69.0, 'K_Reuss': 204.0, 'K_VRH': 204.0, 'K_Voigt': 204.0, 'K_Voigt_Reuss_Hill': 204.0, 'elastic_anisotropy': 0.27, 'elastic_tensor': [[274.0, 170.0, 170.0, 0.0, 0.0, 0.0], [170.0, 274.0, 170.0, 0.0, 0.0, 0.0], [170.0, 170.0, 274.0, 0.0, 0.0, 0.0], [0.0, 0.0, 0.0, 83.0, 0.0, 0.0], [0.0, 0.0, 0.0, 0.0, 83.0, 0.0], [0.0, 0.0, 0.0, 0.0, 0.0, 83.0]], 'homogeneous_poisson': 0.35, 'poisson_ratio': 0.35, 'universal_anisotropy': 0.27, 'elastic_tensor_original': [[273.56475323710214, 169.59217323283383, 169.59217323283383, 0.0, 0.0, 0.0], [169.59217323283383, 273.56475323710214, 169.59217323283383, 0.0, 0.0, 0.0], [169.59217323283383, 169.59217323283383, 273.56475323710214, 0.0, 0.0, 0.0], [0.0, 0.0, 0.0, 83.32230473763043, 0.0, 0.0], [0.0, 0.0, 0.0, 0.0, 83.32230473763043, 0.0], [0.0, 0.0, 0.0, 0.0, 0.0, 83.32230473763043]], 'compliance_tensor': [[7.0, -2.7, -2.7, -0.0, 0.0, 0.0], [-2.7, 7.0, -2.7, 0.0, -0.0, -0.0], [-2.7, -2.7, 7.0, 0.0, 0.0, 0.0], [-0.0, 0.0, 0.0, 12.0, 0.0, 0.0], [0.0, -0.0, 0.0, 0.0, 12.0, 0.0], [0.0, -0.0, 0.0, 0.0, 0.0, 12.0]], 'warnings': [], 'nsites': 4}",0.0,69.0,204.0,0.27,0.35,186.3
27,mp-1910,CeNi5,"{'Ce': 1.0, 'Ni': 5.0}",0.16805695982318286,8.791113257809588,"{'G_Reuss': 64.0, 'G_VRH': 65.0, 'G_Voigt': 66.0, 'G_Voigt_Reuss_Hill': 65.0, 'K_Reuss': 150.0, 'K_VRH': 151.0, 'K_Voigt': 151.0, 'K_Voigt_Reuss_Hill': 151.0, 'elastic_anisotropy': 0.17, 'elastic_tensor': [[230.0, 120.0, 93.0, 0.0, 0.0, 0.0], [120.0, 230.0, 93.0, 0.0, 0.0, 0.0], [93.0, 93.0, 285.0, 0.0, 0.0, 0.0], [0.0, 0.0, 0.0, 65.0, 0.0, 0.0], [0.0, 0.0, 0.0, 0.0, 65.0, 0.0], [0.0, 0.0, 0.0, 0.0, 0.0, 55.0]], 'homogeneous_poisson': 0.31, 'poisson_ratio': 0.31, 'universal_anisotropy': 0.17, 'elastic_tensor_original': [[229.982840569068, 119.29049219816449, 92.68248485255143, 0.0, 0.0, 0.0], [119.72185976490236, 230.04184134344388, 93.19592681809347, 0.0, 0.0, 0.0], [93.63551767144037, 93.63555024737454, 285.0738445717385, 0.0, 0.0, 0.0], [0.020658264298725967, 0.01959761177153941, 0.015668081424838647, 65.25345400423774, 0.0, 0.0], [0.2507730874909461, 0.25779246651699317, 0.23270116034028265, 0.0, 65.43514348415988, 0.0], [0.2086002522976889, 0.164857984034155, 0.09095259072350843, 0.0, 0.0, 55.1054857128228]], 'compliance_tensor': [[6.3, -2.8, -1.1, -0.0, -0.0, 0.0], [-2.8, 6.3, -1.1, -0.0, -0.0, 0.0], [-1.1, -1.1, 4.3, 0.0, 0.0, -0.0], [-0.0, 0.0, 0.0, 15.3, 0.0, 0.0], [-0.0, 0.0, 0.0, 0.0, 15.3, 0.0], [0.0, 0.0, -0.0, 0.0, 0.0, 18.1]], 'warnings': ['Contains a rare earth element'], 'nsites': 6}",0.0,65.0,151.0,0.17,0.31,170.3
28,mp-1939,ErNi2,"{'Er': 1.0, 'Ni': 2.0}",0.1771514351234195,10.503431611348182,"{'G_Reuss': 41.0, 'G_VRH': 43.0, 'G_Voigt': 45.0, 'G_Voigt_Reuss_Hill': 43.0, 'K_Reuss': 109.0, 'K_VRH': 109.0, 'K_Voigt': 109.0, 'K_Voigt_Reuss_Hill': 109.0, 'elastic_anisotropy': 0.51, 'elastic_tensor': [[148.0, 89.0, 89.0, 0.0, 0.0, 0.0], [89.0, 148.0, 89.0, 0.0, 0.0, 0.0], [89.0, 89.0, 148.0, 0.0, 0.0, 0.0], [0.0, 0.0, 0.0, 55.0, 0.0, 0.0], [0.0, 0.0, 0.0, 0.0, 55.0, 0.0], [0.0, 0.0, 0.0, 0.0, 0.0, 55.0]], 'homogeneous_poisson': 0.33, 'poisson_ratio': 0.33, 'universal_anisotropy': 0.51, 'elastic_tensor_original': [[147.54851813662376, 89.40623484560793, 89.40623484560793, 0.0, 0.0, 0.0], [89.40623484560793, 147.54851813662376, 89.40623484560798, 0.0, 0.0, 0.0], [89.40623484560797, 89.40623484560793, 147.54851813662376, 0.0, 0.0, 0.0], [0.0, 0.0, 0.0, 55.215515307692215, 0.0, 0.0], [0.0, 0.0, 0.0, 0.0, 55.21551530769224, 0.0], [0.0, 0.0, 0.0, 0.0, 0.0, 55.21551530769225]], 'compliance_tensor': [[12.5, -4.7, -4.7, -0.0, 0.0, 0.0], [-4.7, 12.5, -4.7, 0.0, -0.0, -0.0], [-4.7, -4.7, 12.5, 0.0, 0.0, 0.0], [-0.0, 0.0, 0.0, 18.1, 0.0, 0.0], [0.0, -0.0, 0.0, -0.0, 18.1, 0.0], [0.0, -0.0, -0.0, 0.0, 0.0, 18.1]], 'warnings': ['Contains a rare earth element'], 'nsites': 6}",0.0,43.0,109.0,0.51,0.33,114.38000000000001
29,mp-19876,InNi,"{'In': 1.0, 'Ni': 1.0}",0.14753087592603284,8.211460607665337,"{'G_Reuss': 49.0, 'G_VRH': 50.0, 'G_Voigt': 51.0, 'G_Voigt_Reuss_Hill': 50.0, 'K_Reuss': 103.0, 'K_VRH': 103.0, 'K_Voigt': 103.0, 'K_Voigt_Reuss_Hill': 103.0, 'elastic_anisotropy': 0.2, 'elastic_tensor': [[178.0, 79.0, 54.0, 0.0, 0.0, 0.0], [79.0, 178.0, 54.0, 0.0, 0.0, 0.0], [54.0, 54.0, 197.0, 0.0, 0.0, 0.0], [0.0, 0.0, 0.0, 42.0, 0.0, 0.0], [0.0, 0.0, 0.0, 0.0, 42.0, 0.0], [0.0, 0.0, 0.0, 0.0, 0.0, 49.0]], 'homogeneous_poisson': 0.29, 'poisson_ratio': 0.29, 'universal_anisotropy': 0.2, 'elastic_tensor_original': [[179.40860991845153, 77.21458764544343, 53.30682847604737, 0.0, 0.0, 0.0], [79.92223904089892, 177.32362215789422, 52.74179252407779, 0.0, 0.0, 0.0], [55.48728475843766, 55.48730229648959, 197.40545200041225, 0.0, 0.0, 0.0], [-0.00014360693820619126, -8.195332726533121e-05, -7.066671139992723e-05, 41.87916144814611, 0.0, 0.0], [4.686989508439692e-05, 0.00013993635342709606, 0.00019226956961596872, 0.0, 42.18958722429949, 0.0], [6.50202775121231e-05, 0.00016467697650438248, -1.9163411024969132e-05, 0.0, 0.0, 48.698433099705]], 'compliance_tensor': [[7.3, -2.9, -1.2, 0.0, 0.0, 0.0], [-2.9, 7.3, -1.2, -0.0, 0.0, 0.0], [-1.2, -1.2, 5.7, -0.0, -0.0, -0.0], [0.0, -0.0, -0.0, 23.8, 0.0, -0.0], [0.0, -0.0, -0.0, 0.0, 23.8, -0.0], [0.0, 0.0, -0.0, 0.0, 0.0, 20.3]], 'warnings': [], 'nsites': 6}",0.0,50.0,103.0,0.2,0.29,129.0
30,mp-20112,Ni3Sn,"{'Ni': 3.0, 'Sn': 1.0}",0.1448637882420553,9.471031302933769,"{'G_Reuss': 64.0, 'G_VRH': 66.0, 'G_Voigt': 67.0, 'G_Voigt_Reuss_Hill': 66.0, 'K_Reuss': 164.0, 'K_VRH': 164.0, 'K_Voigt': 165.0, 'K_Voigt_Reuss_Hill': 164.0, 'elastic_anisotropy': 0.26, 'elastic_tensor': [[261.0, 113.0, 110.0, 0.0, 0.0, 0.0], [113.0, 261.0, 110.0, 0.0, 0.0, 0.0], [110.0, 110.0, 294.0, 0.0, 0.0, 0.0], [0.0, 0.0, 0.0, 50.0, 0.0, 0.0], [0.0, 0.0, 0.0, 0.0, 50.0, 0.0], [0.0, 0.0, 0.0, 0.0, 0.0, 74.0]], 'homogeneous_poisson': 0.32, 'poisson_ratio': 0.32, 'universal_anisotropy': 0.26, 'elastic_tensor_original': [[260.41627720093715, 113.20941582460249, 108.56029312061042, 0.0, 0.0, 0.0], [112.58714599547518, 262.7453061229334, 105.73865993029538, 0.0, 0.0, 0.0], [111.86502231027688, 111.86499071702568, 294.1156188119578, 0.0, 0.0, 0.0], [0.0018681631897052992, 0.017360965331920407, 0.0016264365416258505, 50.50246126060175, 0.0, 0.0], [-0.1295586155209788, -0.14726535119812126, -0.17123466067850354, 0.0, 50.374985793937405, 0.0], [0.11513850589870314, 0.08671731962584857, 0.09759386322295874, 0.0, 0.0, 73.80567030405372]], 'compliance_tensor': [[5.1, -1.7, -1.3, -0.0, -0.0, -0.0], [-1.7, 5.1, -1.3, 0.0, 0.0, -0.0], [-1.3, -1.3, 4.3, -0.0, 0.0, 0.0], [0.0, 0.0, -0.0, 19.8, -0.0, 0.0], [0.0, 0.0, -0.0, -0.0, 19.8, -0.0], [-0.0, -0.0, 0.0, 0.0, 0.0, 13.5]], 'warnings': [], 'nsites': 8}",0.0,66.0,164.0,0.26,0.32,174.24
31,mp-20174,Ni3Sn4,"{'Ni': 3.0, 'Sn': 4.0}",0.11475692032758417,8.453747937527877,"{'G_Reuss': 45.0, 'G_VRH': 47.0, 'G_Voigt': 49.0, 'G_Voigt_Reuss_Hill': 47.0, 'K_Reuss': 98.0, 'K_VRH': 98.0, 'K_Voigt': 99.0, 'K_Voigt_Reuss_Hill': 98.0, 'elastic_anisotropy': 0.44, 'elastic_tensor': [[150.0, 69.0, 67.0, 0.0, -22.0, 0.0], [69.0, 152.0, 74.0, 0.0, 10.0, 0.0], [67.0, 74.0, 169.0, 0.0, -5.0, 0.0], [0.0, 0.0, 0.0, 54.0, 0.0, 11.0], [-22.0, 10.0, -5.0, 0.0, 57.0, 0.0], [0.0, 0.0, 0.0, 11.0, 0.0, 50.0]], 'homogeneous_poisson': 0.29, 'poisson_ratio': 0.29, 'universal_anisotropy': 0.44, 'elastic_tensor_original': [[152.21817774087899, 64.93848182012486, 78.99346158263506, -6.632389073342143, 0.0, 0.0], [63.3834327076179, 174.92877709896248, 57.14615283050976, 23.59075371362267, 0.0, 0.0], [78.40661931639366, 57.50950094254148, 163.88270676988228, 5.506063828904788, 0.0, 0.0], [-7.138564267623217, 22.486992767820716, 5.685689582883568, 46.7342341777873, 0.0, 0.0], [-0.008735667667412548, -0.0046484573786528946, -0.009362647788758546, -0.0022142669341122093, 59.10478577260129, -8.758858241009051], [0.0002005406586523733, 0.000206970692384611, 0.00017084398754688656, 7.626712076040928e-06, -9.055103343294276, 44.33466443383282]], 'compliance_tensor': [[10.0, -3.7, -2.2, 0.0, 4.3, 0.0], [-3.7, 9.9, -3.0, 0.0, -3.4, 0.0], [-2.2, -3.0, 8.1, 0.0, 0.4, 0.0], [0.0, 0.0, 0.0, 19.6, 0.0, -4.5], [4.3, -3.4, 0.4, 0.0, 19.9, 0.0], [0.0, 0.0, 0.0, -4.5, 0.0, 21.1]], 'warnings': [], 'nsites': 7}",0.0,47.0,98.0,0.44,0.29,121.26
32,mp-2033,Ni3N,"{'Ni': 3.0, 'N': 1.0}",0.1559800060766078,8.019197039392992,"{'G_Reuss': 72.0, 'G_VRH': 73.0, 'G_Voigt': 74.0, 'G_Voigt_Reuss_Hill': 73.0, 'K_Reuss': 197.0, 'K_VRH': 197.0, 'K_Voigt': 197.0, 'K_Voigt_Reuss_Hill': 197.0, 'elastic_anisotropy': 0.13, 'elastic_tensor': [[282.0, 151.0, 156.0, 0.0, 0.0, 0.0], [151.0, 282.0, 156.0, 0.0, 0.0, 0.0], [156.0, 156.0, 283.0, 0.0, 0.0, 0.0], [0.0, 0.0, 0.0, 89.0, 0.0, 0.0], [0.0, 0.0, 0.0, 0.0, 89.0, 0.0], [0.0, 0.0, 0.0, 0.0, 0.0, 66.0]], 'homogeneous_poisson': 0.33, 'poisson_ratio': 0.33, 'universal_anisotropy': 0.13, 'elastic_tensor_original': [[278.8558578325579, 150.76820282110748, 152.09778473721943, 0.0, 0.0, 0.0], [152.87618923595934, 283.5964573782261, 155.6796247856338, 0.0, 0.0, 0.0], [158.29201582377448, 158.29192861162826, 282.8309241349189, 0.0, 0.0, 0.0], [-0.00020710342092917797, 3.06066796104821e-05, -0.00014942339653227984, 88.75113656454312, 0.0, 0.0], [0.0007182180662676035, 6.30231636494667e-05, 0.0009728007141622196, 0.0, 88.94014067386419, 0.0], [-9.895468210208204e-08, -0.0002546861529879125, 0.0003610314333706307, 0.0, 0.0, 66.46971928072684]], 'compliance_tensor': [[5.7, -1.9, -2.1, -0.0, -0.0, -0.0], [-1.9, 5.7, -2.1, 0.0, 0.0, -0.0], [-2.1, -2.1, 5.9, 0.0, -0.0, 0.0], [-0.0, 0.0, 0.0, 11.3, -0.0, -0.0], [-0.0, 0.0, -0.0, -0.0, 11.3, 0.0], [-0.0, -0.0, 0.0, -0.0, -0.0, 15.2]], 'warnings': [], 'nsites': 8}",0.0,73.0,197.0,0.13,0.33,194.18
33,mp-2056,Ni3Se2,"{'Ni': 3.0, 'Se': 2.0}",0.18189029945023832,7.305191407674761,"{'G_Reuss': 46.0, 'G_VRH': 47.0, 'G_Voigt': 47.0, 'G_Voigt_Reuss_Hill': 47.0, 'K_Reuss': 105.0, 'K_VRH': 105.0, 'K_Voigt': 106.0, 'K_Voigt_Reuss_Hill': 105.0, 'elastic_anisotropy': 0.17, 'elastic_tensor': [[177.0, 92.0, 61.0, 5.0, 0.0, 0.0], [92.0, 177.0, 61.0, -5.0, 0.0, 0.0], [61.0, 61.0, 172.0, 0.0, 0.0, 0.0], [5.0, -5.0, 0.0, 45.0, 0.0, 0.0], [0.0, 0.0, 0.0, 0.0, 45.0, 5.0], [0.0, 0.0, 0.0, 0.0, 5.0, 42.0]], 'homogeneous_poisson': 0.31, 'poisson_ratio': 0.31, 'universal_anisotropy': 0.17, 'elastic_tensor_original': [[176.5624755852544, 91.9777414087892, 60.818728194617705, -5.550017902180738, 0.0, 0.0], [91.55874046750212, 176.808397777547, 60.36008357035403, 5.169584354148476, 0.0, 0.0], [61.335945837375206, 61.33598057548261, 172.0390138629388, 0.0, 0.0, 0.0], [-4.387274943826734, 4.798199714008578, -0.10814734338546592, 45.25290235368847, 0.0, 0.0], [0.10978157866466486, 0.07262048190654194, 0.07737908331288058, 0.00182904703063594, 45.2766898912838, -4.6762152754659505], [0.06680042740848163, -0.09875741865306312, 0.04404132262233401, -0.14998485074065282, -5.126824928586474, 42.12266886121538]], 'compliance_tensor': [[8.2, -3.8, -1.6, -1.3, -0.0, -0.0], [-3.8, 8.2, -1.6, 1.3, 0.0, -0.0], [-1.6, -1.6, 6.9, -0.0, 0.0, 0.0], [-1.3, 1.3, -0.0, 22.4, -0.0, 0.0], [-0.0, 0.0, 0.0, -0.0, 22.4, -2.6], [-0.0, -0.0, 0.0, 0.0, -2.6, 24.0]], 'warnings': [], 'nsites': 5}",0.0,47.0,105.0,0.17,0.31,123.14
34,mp-2058,Ni3B,"{'Ni': 3.0, 'B': 1.0}",0.1432252125368707,8.260441464642877,"{'G_Reuss': 78.0, 'G_VRH': 82.0, 'G_Voigt': 85.0, 'G_Voigt_Reuss_Hill': 82.0, 'K_Reuss': 225.0, 'K_VRH': 225.0, 'K_Voigt': 225.0, 'K_Voigt_Reuss_Hill': 225.0, 'elastic_anisotropy': 0.49, 'elastic_tensor': [[300.0, 179.0, 198.0, 0.0, 0.0, 0.0], [179.0, 321.0, 169.0, 0.0, 0.0, 0.0], [198.0, 169.0, 310.0, 0.0, 0.0, 0.0], [0.0, 0.0, 0.0, 71.0, 0.0, 0.0], [0.0, 0.0, 0.0, 0.0, 96.0, 0.0], [0.0, 0.0, 0.0, 0.0, 0.0, 131.0]], 'homogeneous_poisson': 0.34, 'poisson_ratio': 0.34, 'universal_anisotropy': 0.49, 'elastic_tensor_original': [[310.1115619777049, 199.78928872500003, 169.1615143477233, 0.0, 0.0, 0.0], [196.72363379701514, 300.43263708990906, 176.66266006353177, 0.0, 0.0, 0.0], [167.97704981411724, 180.34290310376426, 321.2219197023658, 0.0, 0.0, 0.0], [-0.01908086676505801, -0.021630532954429203, -0.009296661442771938, 131.1694093492367, 0.0, 0.0], [0.004508236966092716, 0.0045662769143807284, 0.0048632700383033954, 0.0, 70.92753424125456, 0.0], [-0.10030081253304488, -0.05666507834988699, 0.014398364211420194, 0.0, 0.0, 95.85388951852781]], 'compliance_tensor': [[6.6, -2.0, -3.1, 0.0, 0.0, -0.0], [-2.0, 5.0, -1.4, 0.0, 0.0, 0.0], [-3.1, -1.4, 6.0, 0.0, 0.0, 0.0], [0.0, 0.0, 0.0, 14.1, 0.0, 0.0], [0.0, 0.0, 0.0, 0.0, 10.4, 0.0], [-0.0, 0.0, 0.0, 0.0, 0.0, 7.6]], 'warnings': [], 'nsites': 16}",0.0,82.0,225.0,0.49,0.34,219.76000000000002
35,mp-21008,Ni3Ge,"{'Ni': 3.0, 'Ge': 1.0}",0.15278087946761465,9.008469810631812,"{'G_Reuss': 81.0, 'G_VRH': 84.0, 'G_Voigt': 88.0, 'G_Voigt_Reuss_Hill': 84.0, 'K_Reuss': 175.0, 'K_VRH': 175.0, 'K_Voigt': 175.0, 'K_Voigt_Reuss_Hill': 175.0, 'elastic_anisotropy': 0.44, 'elastic_tensor': [[253.0, 135.0, 135.0, 0.0, 0.0, 0.0], [135.0, 253.0, 135.0, 0.0, 0.0, 0.0], [135.0, 135.0, 253.0, 0.0, 0.0, 0.0], [0.0, 0.0, 0.0, 107.0, 0.0, 0.0], [0.0, 0.0, 0.0, 0.0, 107.0, 0.0], [0.0, 0.0, 0.0, 0.0, 0.0, 107.0]], 'homogeneous_poisson': 0.29, 'poisson_ratio': 0.29, 'universal_anisotropy': 0.44, 'elastic_tensor_original': [[253.20847289919493, 135.48353924332775, 135.48353924332775, 0.0, 0.0, 0.0], [135.47249449271416, 253.19483867840546, 135.47249449271416, 0.0, 0.0, 0.0], [135.4620567432722, 135.4620567432722, 253.1886531589768, 0.0, 0.0, 0.0], [-0.00021148634041792192, -0.00035496058832070176, -8.186398574038417e-05, 107.06809129593846, 0.0, 0.0], [0.0013124666842622154, 0.0011536307423624837, 0.0012046505253084068, 0.0, 107.06781421746518, 0.0], [-0.0010566519311648345, -7.925270278315896e-05, -9.101302681102353e-05, 0.0, 0.0, 107.06770504007397]], 'compliance_tensor': [[6.3, -2.2, -2.2, -0.0, 0.0, -0.0], [-2.2, 6.3, -2.2, -0.0, 0.0, 0.0], [-2.2, -2.2, 6.3, 0.0, -0.0, -0.0], [-0.0, -0.0, 0.0, 9.3, -0.0, -0.0], [0.0, 0.0, -0.0, -0.0, 9.3, 0.0], [-0.0, 0.0, -0.0, -0.0, 0.0, 9.3]], 'warnings': [], 'nsites': 4}",0.0,84.0,175.0,0.44,0.29,216.72
36,mp-21167,Ni2P,"{'Ni': 2.0, 'P': 1.0}",0.12270245314460715,7.387820240036463,"{'G_Reuss': 41.0, 'G_VRH': 42.0, 'G_Voigt': 42.0, 'G_Voigt_Reuss_Hill': 42.0, 'K_Reuss': 193.0, 'K_VRH': 194.0, 'K_Voigt': 194.0, 'K_Voigt_Reuss_Hill': 194.0, 'elastic_anisotropy': 0.08, 'elastic_tensor': [[262.0, 178.0, 155.0, 0.0, 0.0, 0.0], [178.0, 262.0, 155.0, 0.0, 0.0, 0.0], [155.0, 155.0, 245.0, 0.0, 0.0, 0.0], [0.0, 0.0, 0.0, 37.0, 0.0, 0.0], [0.0, 0.0, 0.0, 0.0, 37.0, 0.0], [0.0, 0.0, 0.0, 0.0, 0.0, 42.0]], 'homogeneous_poisson': 0.4, 'poisson_ratio': 0.4, 'universal_anisotropy': 0.08, 'elastic_tensor_original': [[262.0350188317426, 181.90956409618929, 152.51579966542317, 0.0, 0.0, 0.0], [178.24679757682694, 258.74329819642975, 151.36001434967542, 0.0, 0.0, 0.0], [159.04143580149503, 159.0414580996083, 245.44352009622204, 0.0, 0.0, 0.0], [1.1200001006754577e-05, 0.00030961336115553335, 0.0001145233436229058, 37.66113374426362, 0.0, 0.0], [-6.044667722367995e-05, -0.00018434003219721404, 0.0003034933863412946, 0.0, 36.85943605850308, 0.0], [-0.00042620904896899844, 0.00017527294223199696, -0.00020314621337154344, 0.0, 0.0, 43.47467646192122]], 'compliance_tensor': [[8.0, -3.9, -2.6, -0.0, 0.0, 0.0], [-3.9, 8.0, -2.6, -0.0, -0.0, 0.0], [-2.6, -2.6, 7.4, 0.0, 0.0, -0.0], [0.0, -0.0, -0.0, 26.8, 0.0, -0.0], [0.0, -0.0, -0.0, 0.0, 26.8, -0.0], [0.0, 0.0, -0.0, 0.0, -0.0, 23.9]], 'warnings': [], 'nsites': 9}",0.0,42.0,194.0,0.08,0.4,117.6
37,mp-21188,CeNi,"{'Ce': 1.0, 'Ni': 1.0}",0.1708298643553595,8.086556922410875,"{'G_Reuss': 13.0, 'G_VRH': 14.0, 'G_Voigt': 16.0, 'G_Voigt_Reuss_Hill': 14.0, 'K_Reuss': 72.0, 'K_VRH': 73.0, 'K_Voigt': 74.0, 'K_Voigt_Reuss_Hill': 73.0, 'elastic_anisotropy': 1.01, 'elastic_tensor': [[103.0, 71.0, 65.0, 0.0, 0.0, 0.0], [71.0, 85.0, 55.0, 0.0, 0.0, 0.0], [65.0, 55.0, 99.0, 0.0, 0.0, 0.0], [0.0, 0.0, 0.0, 7.0, 0.0, 0.0], [0.0, 0.0, 0.0, 0.0, 14.0, 0.0], [0.0, 0.0, 0.0, 0.0, 0.0, 24.0]], 'homogeneous_poisson': 0.41, 'poisson_ratio': 0.41, 'universal_anisotropy': 1.01, 'elastic_tensor_original': [[99.47702459204126, 56.32305624249317, 64.48949457642956, 0.0, 0.0, 0.0], [53.984674401531755, 84.81254207289578, 69.36913025336116, 0.0, 0.0, 0.0], [65.67214323447614, 72.32962439273433, 102.84232505042375, 0.0, 0.0, 0.0], [-0.07169251103907855, -0.02183606886102871, -0.028339373202989553, 23.957436706046554, 0.0, 0.0], [0.01705012662266778, 0.017335650401826903, 0.016423528977608726, 0.0, 14.322615463835142, 0.0], [0.12386036116675347, 0.13821496626875068, 0.11997192193662819, 0.0, 0.0, 7.394490473696021]], 'compliance_tensor': [[26.3, -16.9, -7.9, -0.0, 0.0, 0.0], [-16.9, 29.3, -5.2, 0.0, 0.0, 0.0], [-7.9, -5.2, 18.1, 0.0, 0.0, 0.0], [-0.0, 0.0, 0.0, 135.2, 0.0, 0.0], [0.0, 0.0, 0.0, 0.0, 69.8, 0.0], [0.0, 0.0, 0.0, 0.0, 0.0, 41.7]], 'warnings': ['Contains a rare earth element'], 'nsites': 4}",0.0,14.0,73.0,1.01,0.41,39.48
38,mp-2130,LuNi2,"{'Lu': 1.0, 'Ni': 2.0}",0.17301202478022484,11.057060542679116,"{'G_Reuss': 40.0, 'G_VRH': 44.0, 'G_Voigt': 48.0, 'G_Voigt_Reuss_Hill': 44.0, 'K_Reuss': 109.0, 'K_VRH': 109.0, 'K_Voigt': 109.0, 'K_Voigt_Reuss_Hill': 109.0, 'elastic_anisotropy': 1.03, 'elastic_tensor': [[143.0, 92.0, 92.0, 0.0, 0.0, 0.0], [92.0, 143.0, 92.0, 0.0, 0.0, 0.0], [92.0, 92.0, 143.0, 0.0, 0.0, 0.0], [0.0, 0.0, 0.0, 63.0, 0.0, 0.0], [0.0, 0.0, 0.0, 0.0, 63.0, 0.0], [0.0, 0.0, 0.0, 0.0, 0.0, 63.0]], 'homogeneous_poisson': 0.32, 'poisson_ratio': 0.32, 'universal_anisotropy': 1.03, 'elastic_tensor_original': [[142.83083895125617, 91.56148339834304, 91.56148339834304, 0.0, 0.0, 0.0], [91.56148339834304, 142.83083895125617, 91.56148339834304, 0.0, 0.0, 0.0], [91.56148339834304, 91.56148339834304, 142.83083895125617, 0.0, 0.0, 0.0], [0.0, 0.0, 0.0, 62.903871630459186, 0.0, 0.0], [0.0, 0.0, 0.0, 0.0, 62.903871630459186, 0.0], [0.0, 0.0, 0.0, 0.0, 0.0, 62.903871630459186]], 'compliance_tensor': [[14.0, -5.5, -5.5, 0.0, -0.0, -0.0], [-5.5, 14.0, -5.5, -0.0, 0.0, 0.0], [-5.5, -5.5, 14.0, -0.0, -0.0, -0.0], [0.0, -0.0, -0.0, 15.9, 0.0, -0.0], [-0.0, 0.0, -0.0, 0.0, 15.9, -0.0], [-0.0, 0.0, -0.0, -0.0, -0.0, 15.9]], 'warnings': ['Contains a rare earth element'], 'nsites': 6}",0.0,44.0,109.0,1.03,0.32,116.16000000000001
39,mp-2137,Mg2Ni,"{'Mg': 2.0, 'Ni': 1.0}",0.1372749093294005,3.481328951027548,"{'G_Reuss': 28.0, 'G_VRH': 29.0, 'G_Voigt': 31.0, 'G_Voigt_Reuss_Hill': 29.0, 'K_Reuss': 65.0, 'K_VRH': 65.0, 'K_Voigt': 65.0, 'K_Voigt_Reuss_Hill': 65.0, 'elastic_anisotropy': 0.51, 'elastic_tensor': [[114.0, 43.0, 38.0, 0.0, 0.0, 0.0], [43.0, 114.0, 38.0, 0.0, 0.0, 0.0], [38.0, 38.0, 125.0, 0.0, 0.0, 0.0], [0.0, 0.0, 0.0, 20.0, 0.0, 0.0], [0.0, 0.0, 0.0, 0.0, 20.0, 0.0], [0.0, 0.0, 0.0, 0.0, 0.0, 35.0]], 'homogeneous_poisson': 0.3, 'poisson_ratio': 0.3, 'universal_anisotropy': 0.51, 'elastic_tensor_original': [[113.49259583115611, 42.01371567304429, 37.39232351156072, 0.0, 0.0, 0.0], [43.99690704643607, 114.83864154386542, 38.74915639409511, 0.0, 0.0, 0.0], [36.95607040305505, 36.95606666354155, 124.50165622892226, 0.0, 0.0, 0.0], [-0.12530316680847461, -0.12984725092361826, -0.12850395637379144, 20.247280426033047, 0.0, 0.0], [-0.07971803034599445, -0.08597845841842879, -0.10868872894327913, 0.0, 20.065291785953136, 0.0], [-0.06608205015420478, -0.05709619757409227, -0.06240543773468477, 0.0, 0.0, 35.24823328296416]], 'compliance_tensor': [[10.8, -3.3, -2.2, -0.0, 0.0, 0.0], [-3.3, 10.8, -2.2, 0.0, -0.0, 0.0], [-2.2, -2.2, 9.4, -0.0, 0.0, -0.0], [0.0, -0.0, -0.0, 49.6, 0.0, -0.0], [0.0, -0.0, 0.0, 0.0, 49.6, -0.0], [0.0, 0.0, -0.0, 0.0, -0.0, 28.2]], 'warnings': [], 'nsites': 18}",0.0,29.0,65.0,0.51,0.3,75.4