,mp_id,Formula,Composition,IPF,Density,Elastic_Tensor,E_above_Hull,G_VRH,K_VRH,Elastic_Anisotropy,poisson_ratio,Y_Modulus
79,mp-810,NiSb,"{'Ni': 1.0, 'Sb': 1.0}",0.11696764287782017,8.564299276176815,"{'G_Reuss': 49.0, 'G_VRH': 50.0, 'G_Voigt': 50.0, 'G_Voigt_Reuss_Hill': 50.0, 'K_Reuss': 114.0, 'K_VRH': 114.0, 'K_Voigt': 114.0, 'K_Voigt_Reuss_Hill': 114.0, 'elastic_anisotropy': 0.15, 'elastic_tensor': [[171.0, 89.0, 80.0, 0.0, 0.0, 0.0], [89.0, 171.0, 80.0, 0.0, 0.0, 0.0], [80.0, 80.0, 183.0, 0.0, 0.0, 0.0], [0.0, 0.0, 0.0, 59.0, 0.0, 0.0], [0.0, 0.0, 0.0, 0.0, 59.0, 0.0], [0.0, 0.0, 0.0, 0.0, 0.0, 41.0]], 'homogeneous_poisson': 0.31, 'poisson_ratio': 0.31, 'universal_anisotropy': 0.15, 'elastic_tensor_original': [[169.2781413405653, 89.11387935421234, 74.56430381093276, 0.0, 0.0, 0.0], [89.91863837573682, 171.76846569261988, 78.16504127124847, 0.0, 0.0, 0.0], [83.5002219149882, 83.50021967541922, 183.12294921236048, 0.0, 0.0, 0.0], [-0.03336140897418234, -0.032996342344931574, -0.02996107108547269, 59.2147793497391, 0.0, 0.0], [-4.0536936065346105e-05, -3.163363988774494e-05, -3.0026927751033356e-05, 0.0, 59.529529906212076, 0.0], [2.063352946315577e-05, 6.649353718517765e-05, 4.110018804216438e-05, 0.0, 0.0, 40.910543429267754]], 'compliance_tensor': [[8.8, -3.5, -2.3, 0.0, -0.0, 0.0], [-3.5, 8.8, -2.3, 0.0, 0.0, 0.0], [-2.3, -2.3, 7.5, -0.0, 0.0, -0.0], [-0.0, 0.0, -0.0, 16.8, 0.0, 0.0], [0.0, 0.0, 0.0, 0.0, 16.8, -0.0], [0.0, 0.0, -0.0, 0.0, 0.0, 24.6]], 'warnings': [], 'nsites': 4}",0.0,50.0,114.0,0.15,0.31,131.0
80,mp-828,SiNi3,"{'Si': 1.0, 'Ni': 3.0}",0.13361647986878508,7.875710359852379,"{'G_Reuss': 98.0, 'G_VRH': 103.0, 'G_Voigt': 107.0, 'G_Voigt_Reuss_Hill': 103.0, 'K_Reuss': 215.0, 'K_VRH': 215.0, 'K_Voigt': 215.0, 'K_Voigt_Reuss_Hill': 215.0, 'elastic_anisotropy': 0.48, 'elastic_tensor': [[310.0, 168.0, 168.0, 0.0, 0.0, 0.0], [168.0, 310.0, 168.0, 0.0, 0.0, 0.0], [168.0, 168.0, 310.0, 0.0, 0.0, 0.0], [0.0, 0.0, 0.0, 132.0, 0.0, 0.0], [0.0, 0.0, 0.0, 0.0, 132.0, 0.0], [0.0, 0.0, 0.0, 0.0, 0.0, 132.0]], 'homogeneous_poisson': 0.29, 'poisson_ratio': 0.29, 'universal_anisotropy': 0.48, 'elastic_tensor_original': [[309.5701013296331, 168.2552370747079, 168.2552370747079, 0.0, 0.0, 0.0], [168.2578867773841, 309.57388061441867, 168.2578867773841, 0.0, 0.0, 0.0], [168.2714473420464, 168.2714473420464, 309.5879802742455, 0.0, 0.0, 0.0], [-9.627038417383974e-05, -2.365303182362695, 2.365158648452585, 131.72266273654554, 0.0, 0.0], [-0.006841236648030846, -0.00706679791592951, -0.0073521125773674395, 0.0, 131.72270340326554, 0.0], [-4.726295114282797, 4.735187935689388, 0.00453016779332692, 0.0, 0.0, 131.72261611980238]], 'compliance_tensor': [[5.2, -1.8, -1.8, -0.0, 0.0, -0.0], [-1.8, 5.2, -1.8, -0.0, -0.0, 0.0], [-1.8, -1.8, 5.2, 0.0, -0.0, 0.0], [-0.0, -0.0, 0.0, 7.6, -0.0, -0.0], [0.0, -0.0, -0.0, -0.0, 7.6, -0.0], [-0.0, 0.0, 0.0, -0.0, -0.0, 7.6]], 'warnings': [], 'nsites': 4}",0.0,103.0,215.0,0.48,0.29,265.74
81,mp-850,ScNi2,"{'Sc': 1.0, 'Ni': 2.0}",0.15476255871936795,6.624090366791918,"{'G_Reuss': 58.0, 'G_VRH': 60.0, 'G_Voigt': 62.0, 'G_Voigt_Reuss_Hill': 60.0, 'K_Reuss': 144.0, 'K_VRH': 144.0, 'K_Voigt': 144.0, 'K_Voigt_Reuss_Hill': 144.0, 'elastic_anisotropy': 0.42, 'elastic_tensor': [[200.0, 115.0, 115.0, 0.0, 0.0, 0.0], [115.0, 200.0, 115.0, 0.0, 0.0, 0.0], [115.0, 115.0, 200.0, 0.0, 0.0, 0.0], [0.0, 0.0, 0.0, 76.0, 0.0, 0.0], [0.0, 0.0, 0.0, 0.0, 76.0, 0.0], [0.0, 0.0, 0.0, 0.0, 0.0, 76.0]], 'homogeneous_poisson': 0.32, 'poisson_ratio': 0.32, 'universal_anisotropy': 0.42, 'elastic_tensor_original': [[200.81360019299518, 116.31293144287118, 116.31293144287118, 0.0, 0.0, 0.0], [114.05309284292767, 198.2854269386796, 114.05309284292767, 0.0, 0.0, 0.0], [116.08183006836673, 116.08183006836673, 200.5843761226145, 0.0, 0.0, 0.0], [2.8846632855182373e-05, 5.265660494803199e-05, 5.469660255480465e-05, 75.84185151956207, 0.0, 0.0], [-7.49965787587055e-05, -9.28265578607804e-05, -7.486324558304475e-05, 0.0, 75.84186509954617, 0.0], [0.010411317796501198, 0.010507404350540895, 0.010092898169732259, 0.0, 0.0, 75.84337405777747]], 'compliance_tensor': [[8.7, -3.2, -3.2, -0.0, 0.0, 0.0], [-3.2, 8.7, -3.2, 0.0, 0.0, 0.0], [-3.2, -3.2, 8.7, -0.0, 0.0, 0.0], [-0.0, 0.0, -0.0, 13.2, 0.0, 0.0], [0.0, 0.0, 0.0, 0.0, 13.2, 0.0], [0.0, 0.0, 0.0, 0.0, 0.0, 13.2]], 'warnings': [], 'nsites': 6}",0.0,60.0,144.0,0.42,0.32,158.4
82,mp-853,ErNi5,"{'Er': 1.0, 'Ni': 5.0}",0.16298685989119654,9.54468774472999,"{'G_Reuss': 71.0, 'G_VRH': 72.0, 'G_Voigt': 73.0, 'G_Voigt_Reuss_Hill': 72.0, 'K_Reuss': 145.0, 'K_VRH': 146.0, 'K_Voigt': 146.0, 'K_Voigt_Reuss_Hill': 146.0, 'elastic_anisotropy': 0.15, 'elastic_tensor': [[233.0, 106.0, 85.0, 0.0, 0.0, -3.0], [106.0, 233.0, 85.0, 0.0, 0.0, -3.0], [85.0, 85.0, 298.0, 0.0, 0.0, -2.0], [0.0, 0.0, 0.0, 68.0, 0.0, 0.0], [0.0, 0.0, 0.0, 0.0, 68.0, 0.0], [-3.0, -3.0, -2.0, 0.0, 0.0, 64.0]], 'homogeneous_poisson': 0.29, 'poisson_ratio': 0.29, 'universal_anisotropy': 0.15, 'elastic_tensor_original': [[233.4024136533095, 110.51711152968242, 87.64511940437015, 0.0, 0.0, -1.3199904154830573e-05], [104.58175814755647, 229.50300979758268, 84.06930267705415, 0.0, 0.0, -2.7200592573740613e-05], [84.51348367032772, 84.51347987030917, 297.84598465502734, 0.0, 0.0, -1.0000048852837058e-05], [0.0, 0.0, 0.0, 68.44464942785922, -8.0999040852388e-06, 0.0], [0.0, 0.0, 0.0, 0.0, 67.83469475225166, 0.0], [-8.297543766410582, -9.268019184107542, -6.547670909112843, 0.0, 0.0, 65.83154467913477]], 'compliance_tensor': [[5.6, -2.2, -1.0, 0.0, 0.0, 0.1], [-2.2, 5.6, -1.0, 0.0, 0.0, 0.1], [-1.0, -1.0, 3.9, 0.0, 0.0, 0.0], [0.0, 0.0, 0.0, 14.7, 0.0, 0.0], [0.0, 0.0, 0.0, 0.0, 14.7, 0.0], [0.1, 0.1, 0.0, 0.0, 0.0, 15.7]], 'warnings': ['Contains a rare earth element'], 'nsites': 6}",0.0,72.0,146.0,0.15,0.29,185.76
83,mp-862604,Re3Ni,"{'Re': 3.0, 'Ni': 1.0}",0.11173330339260634,18.34697178680168,"{'G_Reuss': 173.0, 'G_VRH': 175.0, 'G_Voigt': 177.0, 'G_Voigt_Reuss_Hill': 175.0, 'K_Reuss': 326.0, 'K_VRH': 326.0, 'K_Voigt': 326.0, 'K_Voigt_Reuss_Hill': 326.0, 'elastic_anisotropy': 0.1, 'elastic_tensor': [[571.0, 220.0, 178.0, 0.0, 0.0, 0.0], [220.0, 571.0, 178.0, 0.0, 0.0, 0.0], [178.0, 178.0, 642.0, 0.0, 0.0, 0.0], [0.0, 0.0, 0.0, 153.0, 0.0, 0.0], [0.0, 0.0, 0.0, 0.0, 153.0, 0.0], [0.0, 0.0, 0.0, 0.0, 0.0, 175.0]], 'homogeneous_poisson': 0.27, 'poisson_ratio': 0.27, 'universal_anisotropy': 0.1, 'elastic_tensor_original': [[570.7692299291652, 218.5798543733564, 177.52306807308463, 0.0, 0.0, 0.0], [221.83709015507486, 571.6252950801876, 179.72382843050127, 0.0, 0.0, 0.0], [177.92306125654406, 177.92314525687073, 641.6655441161365, 0.0, 0.0, 0.0], [-0.0007068631577776271, -0.0008164631305575587, -0.0004909498780659148, 153.05045472861966, 0.0, 0.0], [-8.250988350031263e-05, -1.3866647087353434e-05, -6.013324842496425e-05, 0.0, 153.63255842938085, 0.0], [-0.002975589970684107, -0.0027944456587038983, -0.002720422538999312, 0.0, 0.0, 174.9337338962571]], 'compliance_tensor': [[2.1, -0.7, -0.4, 0.0, 0.0, 0.0], [-0.7, 2.1, -0.4, -0.0, 0.0, 0.0], [-0.4, -0.4, 1.8, 0.0, -0.0, -0.0], [0.0, -0.0, 0.0, 6.5, 0.0, -0.0], [0.0, 0.0, -0.0, 0.0, 6.5, -0.0], [0.0, 0.0, -0.0, -0.0, -0.0, 5.7]], 'warnings': [], 'nsites': 8}",0.0,175.0,326.0,0.1,0.27,444.5
84,mp-867357,Tc3Ni,"{'Tc': 3.0, 'Ni': 1.0}",0.1254166288273879,10.763601035244145,"{'G_Reuss': 149.0, 'G_VRH': 150.0, 'G_Voigt': 151.0, 'G_Voigt_Reuss_Hill': 150.0, 'K_Reuss': 283.0, 'K_VRH': 284.0, 'K_Voigt': 284.0, 'K_Voigt_Reuss_Hill': 284.0, 'elastic_anisotropy': 0.07, 'elastic_tensor': [[482.0, 192.0, 162.0, 0.0, 0.0, 0.0], [192.0, 482.0, 162.0, 0.0, 0.0, 0.0], [162.0, 162.0, 556.0, 0.0, 0.0, 0.0], [0.0, 0.0, 0.0, 138.0, 0.0, 0.0], [0.0, 0.0, 0.0, 0.0, 138.0, 0.0], [0.0, 0.0, 0.0, 0.0, 0.0, 145.0]], 'homogeneous_poisson': 0.28, 'poisson_ratio': 0.28, 'universal_anisotropy': 0.07, 'elastic_tensor_original': [[482.84221456937973, 192.87407057576326, 159.99348967046322, 0.0, 0.0, 0.0], [193.0296431986826, 479.4253404031411, 159.53357970243704, 0.0, 0.0, 0.0], [164.904858085211, 164.90494082335644, 556.0403071194587, 0.0, 0.0, 0.0], [0.00026639667203547806, 0.000913254623644343, 0.0009200671733014526, 137.45055761439997, 0.0, 0.0], [0.00013199299823516686, -1.1583926416421255e-05, -9.720374700410817e-05, 0.0, 138.05589409647212, 0.0], [-0.0001845600618862847, -0.00010922002537580148, -1.2256660839122931e-05, 0.0, 0.0, 145.89239722179718]], 'compliance_tensor': [[2.6, -0.9, -0.5, -0.0, 0.0, 0.0], [-0.9, 2.6, -0.5, 0.0, 0.0, 0.0], [-0.5, -0.5, 2.1, 0.0, 0.0, -0.0], [-0.0, 0.0, 0.0, 7.3, 0.0, 0.0], [0.0, 0.0, 0.0, 0.0, 7.3, 0.0], [0.0, 0.0, -0.0, 0.0, 0.0, 6.9]], 'warnings': [], 'nsites': 8}",0.0,150.0,284.0,0.07,0.28,384.0
85,mp-945,NiPt,"{'Ni': 1.0, 'Pt': 1.0}",0.1447890360080451,15.715335518454665,"{'G_Reuss': 86.0, 'G_VRH': 91.0, 'G_Voigt': 95.0, 'G_Voigt_Reuss_Hill': 91.0, 'K_Reuss': 213.0, 'K_VRH': 213.0, 'K_Voigt': 214.0, 'K_Voigt_Reuss_Hill': 213.0, 'elastic_anisotropy': 0.51, 'elastic_tensor': [[348.0, 131.0, 173.0, 0.0, 0.0, 0.0], [131.0, 348.0, 173.0, 0.0, 0.0, 0.0], [173.0, 173.0, 275.0, 0.0, 0.0, 0.0], [0.0, 0.0, 0.0, 120.0, 0.0, 0.0], [0.0, 0.0, 0.0, 0.0, 120.0, 0.0], [0.0, 0.0, 0.0, 0.0, 0.0, 70.0]], 'homogeneous_poisson': 0.31, 'poisson_ratio': 0.31, 'universal_anisotropy': 0.51, 'elastic_tensor_original': [[347.80068929181283, 130.60305596772713, 166.4621071743323, 0.0, 0.0, 0.0], [130.60082034994633, 347.7981542079831, 166.46124592674857, 0.0, 0.0, 0.0], [178.6496337503694, 178.6496337503694, 274.753369086061, 0.0, 0.0, 0.0], [2.4123263723346308e-05, -4.3463207913064085e-05, 1.2533297173688621e-06, 120.3260439578475, 0.0, 0.0], [0.00019979275680279961, -0.00018307947169575884, 3.144324260340482e-05, 0.0, 120.32620198072483, 0.0], [0.0003718355998158208, 0.0002479592885682948, 0.00037217226551439334, 0.0, 0.0, 70.33459510640046]], 'compliance_tensor': [[4.2, -0.4, -2.4, 0.0, 0.0, 0.0], [-0.4, 4.2, -2.4, -0.0, 0.0, 0.0], [-2.4, -2.4, 6.7, -0.0, -0.0, -0.0], [0.0, -0.0, -0.0, 8.3, 0.0, -0.0], [0.0, 0.0, -0.0, 0.0, 8.3, 0.0], [0.0, 0.0, -0.0, -0.0, 0.0, 14.2]], 'warnings': [], 'nsites': 2}",0.0,91.0,213.0,0.51,0.31,238.42000000000002
86,mp-1007923,CrNi3,"{'Cr': 1.0, 'Ni': 3.0}",0.19506227964170328,8.618942228355627,"{'G_Reuss': 97.0, 'G_VRH': 105.0, 'G_Voigt': 113.0, 'G_Voigt_Reuss_Hill': 105.0, 'K_Reuss': 221.0, 'K_VRH': 222.0, 'K_Voigt': 222.0, 'K_Voigt_Reuss_Hill': 222.0, 'elastic_anisotropy': 0.82, 'elastic_tensor': [[298.0, 178.0, 178.0, 0.0, 0.0, 0.0], [178.0, 298.0, 178.0, 0.0, 0.0, 0.0], [178.0, 178.0, 334.0, 0.0, 0.0, 0.0], [0.0, 0.0, 0.0, 146.0, 0.0, 0.0], [0.0, 0.0, 0.0, 0.0, 146.0, 0.0], [0.0, 0.0, 0.0, 0.0, 0.0, 142.0]], 'homogeneous_poisson': 0.29, 'poisson_ratio': 0.29, 'universal_anisotropy': 0.82, 'elastic_tensor_original': [[297.86502694188397, 178.3279280882583, 166.5943849771275, -2.3200127949972132e-05, 0.0, 0.0], [178.3279280882583, 297.86502694188397, 166.5943849771275, 0.0, 2.3200127945972483e-05, 0.0], [188.97471892224416, 188.97471892224416, 334.26948844175604, -4.640076400171495e-05, -4.640076400171495e-05, 0.0], [0.0, 0.0, 0.0, 145.83458310200336, 9.999918366095758e-08, 0.0], [0.0, 0.0, 0.0, -9.999918367217644e-08, 145.83458310200336, 0.0], [1.4249069007386055, -1.4249069007386055, 0.0, -9.999906314868474e-07, 0.0, 142.4822153532561]], 'compliance_tensor': [[5.9, -2.4, -1.9, -0.0, 0.0, 0.0], [-2.4, 5.9, -1.9, 0.0, -0.0, 0.0], [-1.9, -1.9, 5.0, -0.0, 0.0, -0.0], [-0.0, 0.0, -0.0, 6.9, -0.0, 0.0], [0.0, -0.0, 0.0, -0.0, 6.9, 0.0], [0.0, 0.0, -0.0, 0.0, 0.0, 7.0]], 'warnings': [], 'nsites': 4}",0.26945000000022645,105.0,222.0,0.82,0.29,270.90000000000003
87,mp-1017556,CuNi3N,"{'Cu': 1.0, 'Ni': 3.0, 'N': 1.0}",0.1628266609471748,8.116465653403674,"{'G_Reuss': 60.0, 'G_VRH': 66.0, 'G_Voigt': 72.0, 'G_Voigt_Reuss_Hill': 66.0, 'K_Reuss': 196.0, 'K_VRH': 196.0, 'K_Voigt': 196.0, 'K_Voigt_Reuss_Hill': 196.0, 'elastic_anisotropy': 1.03, 'elastic_tensor': [[345.0, 122.0, 122.0, 0.0, 0.0, 0.0], [122.0, 345.0, 122.0, 0.0, 0.0, 0.0], [122.0, 122.0, 345.0, 0.0, 0.0, 0.0], [0.0, 0.0, 0.0, 46.0, 0.0, 0.0], [0.0, 0.0, 0.0, 0.0, 46.0, 0.0], [0.0, 0.0, 0.0, 0.0, 0.0, 46.0]], 'homogeneous_poisson': 0.35, 'poisson_ratio': 0.35, 'universal_anisotropy': 1.03, 'elastic_tensor_original': [[345.06087147235763, 122.01718758049913, 122.01718758049913, 0.0, 0.0, 0.0], [122.01651515730777, 345.0603208597372, 122.01651515730777, 0.0, 0.0, 0.0], [122.01657387377705, 122.01657387377705, 345.0602864996891, 0.0, 0.0, 0.0], [8.104330028507487e-05, 9.190996252111688e-05, 8.923663027815945e-05, 45.51934869820157, 0.0, 0.0], [-0.00012671661499381173, -0.00011099328807261227, -0.00012998994699273293, 0.0, 45.51933654153986, 0.0], [2.4033323537830865e-06, 4.79999804829538e-07, 2.349999040705021e-06, 0.0, 0.0, 45.51934730153545]], 'compliance_tensor': [[3.6, -0.9, -0.9, 0.0, 0.0, 0.0], [-0.9, 3.6, -0.9, 0.0, 0.0, -0.0], [-0.9, -0.9, 3.6, 0.0, 0.0, -0.0], [0.0, 0.0, 0.0, 22.0, 0.0, 0.0], [0.0, 0.0, 0.0, 0.0, 22.0, 0.0], [0.0, -0.0, -0.0, 0.0, 0.0, 22.0]], 'warnings': [], 'nsites': 5}",0.0,66.0,196.0,1.03,0.35,178.20000000000002
88,mp-10284,YSi3Ni,"{'Y': 1.0, 'Si': 3.0, 'Ni': 1.0}",0.10219857582784297,4.690887403729293,"{'G_Reuss': 85.0, 'G_VRH': 86.0, 'G_Voigt': 86.0, 'G_Voigt_Reuss_Hill': 86.0, 'K_Reuss': 118.0, 'K_VRH': 119.0, 'K_Voigt': 121.0, 'K_Voigt_Reuss_Hill': 119.0, 'elastic_anisotropy': 0.1, 'elastic_tensor': [[204.0, 61.0, 49.0, 0.0, 0.0, 0.0], [61.0, 295.0, 72.0, 0.0, 0.0, 0.0], [49.0, 72.0, 230.0, 0.0, 0.0, 0.0], [0.0, 0.0, 0.0, 91.0, 0.0, 0.0], [0.0, 0.0, 0.0, 0.0, 75.0, 0.0], [0.0, 0.0, 0.0, 0.0, 0.0, 83.0]], 'homogeneous_poisson': 0.21, 'poisson_ratio': 0.21, 'universal_anisotropy': 0.1, 'elastic_tensor_original': [[230.48911995700698, 71.51067287037165, 47.92686103675066, 0.0, 0.0, 0.0], [72.08507558647027, 294.86601211114436, 61.474532392605724, 0.0, 0.0, 0.0], [49.08715165492211, 61.312367022414286, 204.15492892334143, 0.0, 0.0, 0.0], [0.07670267935637348, 0.06291411782223812, 0.08669156487716671, 82.65852656763559, 0.0, 0.0], [-0.00021717329849315595, -0.000213916619888585, -0.0002161466364244071, 0.0, 75.27077801088781, 0.0], [0.0074618542772398955, 0.007736630822175495, 0.002537888824747575, 0.0, 0.0, 90.75452303773574]], 'compliance_tensor': [[5.4, -0.9, -0.8, -0.0, 0.0, 0.0], [-0.9, 3.8, -1.0, 0.0, 0.0, 0.0], [-0.8, -1.0, 4.8, -0.0, 0.0, 0.0], [-0.0, 0.0, -0.0, 11.0, 0.0, 0.0], [0.0, 0.0, 0.0, 0.0, 13.3, 0.0], [0.0, 0.0, 0.0, 0.0, 0.0, 12.1]], 'warnings': [], 'nsites': 10}",0.0,86.0,119.0,0.1,0.21,208.12
89,mp-11194,NdMgNi4,"{'Nd': 1.0, 'Mg': 1.0, 'Ni': 4.0}",0.2045664879697175,7.541559821339484,"{'G_Reuss': 49.0, 'G_VRH': 50.0, 'G_Voigt': 51.0, 'G_Voigt_Reuss_Hill': 50.0, 'K_Reuss': 117.0, 'K_VRH': 117.0, 'K_Voigt': 117.0, 'K_Voigt_Reuss_Hill': 117.0, 'elastic_anisotropy': 0.16, 'elastic_tensor': [[171.0, 91.0, 91.0, 0.0, 0.0, 0.0], [91.0, 171.0, 91.0, 0.0, 0.0, 0.0], [91.0, 91.0, 171.0, 0.0, 0.0, 0.0], [0.0, 0.0, 0.0, 58.0, 0.0, 0.0], [0.0, 0.0, 0.0, 0.0, 58.0, 0.0], [0.0, 0.0, 0.0, 0.0, 0.0, 58.0]], 'homogeneous_poisson': 0.31, 'poisson_ratio': 0.31, 'universal_anisotropy': 0.16, 'elastic_tensor_original': [[170.9654280468016, 90.68271958895949, 90.68271958895949, 0.0, 0.0, 0.0], [90.68271958895949, 170.9654280468016, 90.68271958895949, 0.0, 0.0, 0.0], [90.68271958895949, 90.68271958895949, 170.9654280468016, 0.0, 0.0, 0.0], [0.0, 0.0, 0.0, 57.913513963570225, 0.0, 0.0], [0.0, 0.0, 0.0, 0.0, 57.913513963570225, 0.0], [0.0, 0.0, 0.0, 0.0, 0.0, 57.913513963570225]], 'compliance_tensor': [[9.3, -3.2, -3.2, 0.0, -0.0, -0.0], [-3.2, 9.3, -3.2, -0.0, 0.0, 0.0], [-3.2, -3.2, 9.3, -0.0, -0.0, 0.0], [0.0, -0.0, -0.0, 17.3, 0.0, -0.0], [-0.0, 0.0, -0.0, 0.0, 17.3, -0.0], [-0.0, 0.0, 0.0, -0.0, -0.0, 17.3]], 'warnings': ['Contains a rare earth element'], 'nsites': 6}",0.0,50.0,117.0,0.16,0.31,131.0
90,mp-11400,ScGaNi2,"{'Sc': 1.0, 'Ga': 1.0, 'Ni': 2.0}",0.14752802549166177,6.9866259851365005,"{'G_Reuss': 46.0, 'G_VRH': 49.0, 'G_Voigt': 52.0, 'G_Voigt_Reuss_Hill': 49.0, 'K_Reuss': 130.0, 'K_VRH': 130.0, 'K_Voigt': 130.0, 'K_Voigt_Reuss_Hill': 130.0, 'elastic_anisotropy': 0.61, 'elastic_tensor': [[173.0, 108.0, 108.0, 0.0, 0.0, 0.0], [108.0, 173.0, 108.0, 0.0, 0.0, 0.0], [108.0, 108.0, 173.0, 0.0, 0.0, 0.0], [0.0, 0.0, 0.0, 65.0, 0.0, 0.0], [0.0, 0.0, 0.0, 0.0, 65.0, 0.0], [0.0, 0.0, 0.0, 0.0, 0.0, 65.0]], 'homogeneous_poisson': 0.33, 'poisson_ratio': 0.33, 'universal_anisotropy': 0.61, 'elastic_tensor_original': [[172.79914299537003, 108.23356679845016, 108.23356679845016, 0.0, 0.0, 0.0], [108.09352974408098, 172.65687536284275, 108.09352974408098, 0.0, 0.0, 0.0], [108.25711153313554, 108.25711153313554, 172.81540610324328, 0.0, 0.0, 0.0], [-0.007950021375864659, -0.008447830688692124, -0.008318530536654038, 65.01547895561113, 0.0, 0.0], [0.01279332388544549, 0.012915201149622284, 0.012857124170988003, 0.0, 65.01439981646382, 0.0], [-0.02345990810237562, -0.02376356834500232, -0.023734101962594647, 0.0, 0.0, 65.01517993367125]], 'compliance_tensor': [[11.2, -4.3, -4.3, 0.0, -0.0, 0.0], [-4.3, 11.2, -4.3, -0.0, 0.0, -0.0], [-4.3, -4.3, 11.2, -0.0, 0.0, 0.0], [0.0, -0.0, -0.0, 15.4, -0.0, 0.0], [-0.0, 0.0, 0.0, -0.0, 15.4, -0.0], [0.0, -0.0, 0.0, 0.0, -0.0, 15.4]], 'warnings': [], 'nsites': 4}",0.0,49.0,130.0,0.61,0.33,130.34
91,mp-11522,Ni3Sn,"{'Ni': 3.0, 'Sn': 1.0}",0.14493813910117187,9.475892278355152,"{'G_Reuss': 72.0, 'G_VRH': 76.0, 'G_Voigt': 79.0, 'G_Voigt_Reuss_Hill': 76.0, 'K_Reuss': 163.0, 'K_VRH': 163.0, 'K_Voigt': 163.0, 'K_Voigt_Reuss_Hill': 163.0, 'elastic_anisotropy': 0.46, 'elastic_tensor': [[233.0, 128.0, 128.0, 0.0, 0.0, 0.0], [128.0, 233.0, 128.0, 0.0, 0.0, 0.0], [128.0, 128.0, 233.0, 0.0, 0.0, 0.0], [0.0, 0.0, 0.0, 97.0, 0.0, 0.0], [0.0, 0.0, 0.0, 0.0, 97.0, 0.0], [0.0, 0.0, 0.0, 0.0, 0.0, 97.0]], 'homogeneous_poisson': 0.3, 'poisson_ratio': 0.3, 'universal_anisotropy': 0.46, 'elastic_tensor_original': [[232.52859314502632, 127.7751064395155, 127.7751064395155, 0.0, 0.0, 0.0], [127.77876252997038, 232.52552858562393, 127.77876252997038, 0.0, 0.0, 0.0], [127.77494258595502, 127.77494258595502, 232.53162483289054, 0.0, 0.0, 0.0], [0.0004587099981421643, -2.1456766213270605e-05, 0.00013090319825529136, 96.58994688607955, 0.0, 0.0], [-0.00035309929917580994, -0.0008123057189909892, -1.576205930104205e-05, 0.0, 96.58934103917353, 0.0], [-0.000487036570659977, -0.00015574291918558667, -0.0005160620905124029, 0.0, 0.0, 96.58964125203411]], 'compliance_tensor': [[7.0, -2.5, -2.5, 0.0, -0.0, -0.0], [-2.5, 7.0, -2.5, 0.0, 0.0, -0.0], [-2.5, -2.5, 7.0, -0.0, 0.0, 0.0], [0.0, 0.0, -0.0, 10.4, -0.0, -0.0], [-0.0, 0.0, 0.0, -0.0, 10.4, 0.0], [-0.0, -0.0, 0.0, -0.0, 0.0, 10.4]], 'warnings': [], 'nsites': 4}",0.4738487499986732,76.0,163.0,0.46,0.3,197.6