,mp_id,Formula,Composition,IPF,Density,Elastic_Tensor,E_above_Hull,G_VRH,K_VRH,Elastic_Anisotropy,poisson_ratio,Y_Modulus
92,mp-1179,DyNi5,"{'Dy': 1.0, 'Ni': 5.0}",0.179834464862437,9.360103659811411,"{'G_Reuss': 70.0, 'G_VRH': 70.0, 'G_Voigt': 71.0, 'G_Voigt_Reuss_Hill': 70.0, 'K_Reuss': 146.0, 'K_VRH': 147.0, 'K_Voigt': 147.0, 'K_Voigt_Reuss_Hill': 147.0, 'elastic_anisotropy': 0.12, 'elastic_tensor': [[233.0, 106.0, 88.0, 0.0, 0.0, -1.0], [106.0, 233.0, 88.0, 0.0, 0.0, -1.0], [88.0, 88.0, 290.0, 0.0, 0.0, -2.0], [0.0, 0.0, 0.0, 68.0, 0.0, 0.0], [0.0, 0.0, 0.0, 0.0, 68.0, 0.0], [-1.0, -1.0, -2.0, 0.0, 0.0, 63.0]], 'homogeneous_poisson': 0.29, 'poisson_ratio': 0.29, 'universal_anisotropy': 0.12, 'elastic_tensor_original': [[214.25775156790493, 89.25381900733923, 61.1966325171581, 0.0, 0.0, 0.0], [124.37438634794881, 251.39947947557343, 95.25134945571237, 0.0, 0.0, 0.0], [98.3311912879041, 98.3311912879041, 290.1102215318941, 0.0, 0.0, 0.0], [0.0, 0.0, 0.0, 67.51928092085132, 0.0, 0.0], [0.0, 0.0, 0.0, 0.0, 67.67555151762502, 0.0], [-1.7905233763026576, -1.8721164301587023, -5.867055463220517, 0.0, 0.0, 63.737319086355946]], 'compliance_tensor': [[5.7, -2.2, -1.1, 0.0, 0.0, -0.0], [-2.2, 5.7, -1.1, 0.0, 0.0, 0.0], [-1.1, -1.1, 4.1, 0.0, 0.0, 0.1], [0.0, 0.0, 0.0, 14.8, -0.0, 0.0], [0.0, 0.0, 0.0, -0.0, 14.8, 0.0], [-0.0, 0.0, 0.1, 0.0, 0.0, 15.8]], 'warnings': ['Contains a rare earth element'], 'nsites': 6}",0.0,70.0,147.0,0.12,0.29,180.6
93,mp-12703,PrZnNi,"{'Pr': 1.0, 'Zn': 1.0, 'Ni': 1.0}",0.16238114613741084,7.489617143189794,"{'G_Reuss': 29.0, 'G_VRH': 30.0, 'G_Voigt': 31.0, 'G_Voigt_Reuss_Hill': 30.0, 'K_Reuss': 76.0, 'K_VRH': 77.0, 'K_Voigt': 78.0, 'K_Voigt_Reuss_Hill': 77.0, 'elastic_anisotropy': 0.38, 'elastic_tensor': [[117.0, 65.0, 60.0, 0.0, 0.0, 0.0], [65.0, 117.0, 60.0, 0.0, 0.0, 0.0], [60.0, 60.0, 93.0, 0.0, 0.0, 0.0], [0.0, 0.0, 0.0, 40.0, 0.0, 0.0], [0.0, 0.0, 0.0, 0.0, 40.0, 0.0], [0.0, 0.0, 0.0, 0.0, 0.0, 26.0]], 'homogeneous_poisson': 0.33, 'poisson_ratio': 0.33, 'universal_anisotropy': 0.38, 'elastic_tensor_original': [[108.57864913511587, 56.00653504548712, 60.01857278214316, 0.0, 0.0, -4.400018135818062e-06], [73.0339879998711, 126.38304827568476, 77.60702711154069, 0.0, 0.0, 1.0000088151498217e-05], [52.086684225906716, 52.08668962601118, 93.27342859059337, 0.0, 0.0, 4.200081251297564e-06], [0.0, 0.0, 0.0, 40.015088528918525, 3.199996068194047e-06, 0.0], [0.0, 0.0, 0.0, 0.0, 40.3461158179679, 0.0], [0.0, 0.0, 0.0, 0.0, 0.0, 26.338985816571014]], 'compliance_tensor': [[14.3, -4.6, -6.3, 0.0, 0.0, -0.0], [-4.6, 14.3, -6.3, 0.0, 0.0, -0.0], [-6.3, -6.3, 18.8, 0.0, 0.0, 0.0], [0.0, 0.0, 0.0, 24.9, -0.0, 0.0], [0.0, 0.0, 0.0, -0.0, 24.9, 0.0], [-0.0, -0.0, 0.0, 0.0, 0.0, 37.9]], 'warnings': ['Contains a rare earth element'], 'nsites': 9}",0.0,30.0,77.0,0.38,0.33,79.80000000000001
94,mp-13435,CeMgNi4,"{'Ce': 1.0, 'Mg': 1.0, 'Ni': 4.0}",0.17079511450136284,7.68581111716641,"{'G_Reuss': 52.0, 'G_VRH': 54.0, 'G_Voigt': 56.0, 'G_Voigt_Reuss_Hill': 54.0, 'K_Reuss': 142.0, 'K_VRH': 142.0, 'K_Voigt': 142.0, 'K_Voigt_Reuss_Hill': 142.0, 'elastic_anisotropy': 0.37, 'elastic_tensor': [[194.0, 116.0, 116.0, 0.0, 0.0, 0.0], [116.0, 194.0, 116.0, 0.0, 0.0, 0.0], [116.0, 116.0, 194.0, 0.0, 0.0, 0.0], [0.0, 0.0, 0.0, 67.0, 0.0, 0.0], [0.0, 0.0, 0.0, 0.0, 67.0, 0.0], [0.0, 0.0, 0.0, 0.0, 0.0, 67.0]], 'homogeneous_poisson': 0.33, 'poisson_ratio': 0.33, 'universal_anisotropy': 0.37, 'elastic_tensor_original': [[194.1144110435685, 116.29051503789259, 116.29051503789259, 0.0, 0.0, 0.0], [116.29051503789259, 194.1144110435685, 116.29051503789259, 0.0, 0.0, 0.0], [116.29051503789259, 116.29051503789259, 194.1144110435685, 0.0, 0.0, 0.0], [0.0, 0.0, 0.0, 67.36465041804463, 0.0, 0.0], [0.0, 0.0, 0.0, 0.0, 67.36465041804463, 0.0], [0.0, 0.0, 0.0, 0.0, 0.0, 67.36465041804463]], 'compliance_tensor': [[9.3, -3.5, -3.5, 0.0, -0.0, -0.0], [-3.5, 9.3, -3.5, -0.0, 0.0, 0.0], [-3.5, -3.5, 9.3, -0.0, -0.0, 0.0], [0.0, -0.0, -0.0, 14.8, 0.0, -0.0], [-0.0, 0.0, -0.0, 0.0, 14.8, -0.0], [-0.0, 0.0, 0.0, -0.0, -0.0, 14.8]], 'warnings': ['Contains a rare earth element'], 'nsites': 6}",0.0,54.0,142.0,0.37,0.33,143.64000000000001
95,mp-16349,LiNi2Ge,"{'Li': 1.0, 'Ni': 2.0, 'Ge': 1.0}",0.18315833709626483,7.165161841703568,"{'G_Reuss': 13.0, 'G_VRH': 37.0, 'G_Voigt': 61.0, 'G_Voigt_Reuss_Hill': 37.0, 'K_Reuss': 133.0, 'K_VRH': 133.0, 'K_Voigt': 133.0, 'K_Voigt_Reuss_Hill': 133.0, 'elastic_anisotropy': 19.17, 'elastic_tensor': [[140.0, 129.0, 129.0, 0.0, 0.0, 0.0], [129.0, 140.0, 129.0, 0.0, 0.0, 0.0], [129.0, 129.0, 140.0, 0.0, 0.0, 0.0], [0.0, 0.0, 0.0, 98.0, 0.0, 0.0], [0.0, 0.0, 0.0, 0.0, 98.0, 0.0], [0.0, 0.0, 0.0, 0.0, 0.0, 98.0]], 'homogeneous_poisson': 0.37, 'poisson_ratio': 0.37, 'universal_anisotropy': 19.17, 'elastic_tensor_original': [[141.70339482315637, 128.9732754176877, 128.9732754176877, 0.0, 0.0, 0.0], [128.9884734552496, 141.7186938799779, 128.9884734552496, 0.0, 0.0, 0.0], [130.4432905801074, 130.4432905801074, 137.70236841384244, 0.0, 0.0, 0.0], [-0.0055211941046554025, -0.004956926677822487, -0.0057219377084250156, 97.72818465984146, 0.0, 0.0], [-0.0011245615149763262, -0.0010023413503227978, -0.0009190579047947103, 0.0, 97.72819789319261, 0.0], [0.003827865156786032, 0.003951508656688245, 0.003867525210214987, 0.0, 0.0, 97.72871629389098]], 'compliance_tensor': [[62.0, -29.7, -29.7, -0.0, 0.0, -0.0], [-29.7, 62.0, -29.7, -0.0, -0.0, 0.0], [-29.7, -29.7, 62.0, 0.0, -0.0, 0.0], [-0.0, -0.0, 0.0, 10.2, -0.0, -0.0], [0.0, -0.0, -0.0, -0.0, 10.2, -0.0], [-0.0, 0.0, 0.0, -0.0, -0.0, 10.2]], 'warnings': [], 'nsites': 4}",0.0,37.0,133.0,19.17,0.37,101.38000000000001
96,mp-171,VNi3,"{'V': 1.0, 'Ni': 3.0}",0.1580420878777272,8.437749117983708,"{'G_Reuss': 93.0, 'G_VRH': 101.0, 'G_Voigt': 109.0, 'G_Voigt_Reuss_Hill': 101.0, 'K_Reuss': 213.0, 'K_VRH': 213.0, 'K_Voigt': 213.0, 'K_Voigt_Reuss_Hill': 213.0, 'elastic_anisotropy': 0.86, 'elastic_tensor': [[294.0, 189.0, 161.0, 0.0, 0.0, 0.0], [189.0, 294.0, 161.0, 0.0, 0.0, 0.0], [161.0, 161.0, 310.0, 0.0, 0.0, 0.0], [0.0, 0.0, 0.0, 136.0, 0.0, 0.0], [0.0, 0.0, 0.0, 0.0, 136.0, 0.0], [0.0, 0.0, 0.0, 0.0, 0.0, 143.0]], 'homogeneous_poisson': 0.3, 'poisson_ratio': 0.3, 'universal_anisotropy': 0.86, 'elastic_tensor_original': [[293.6057411528954, 188.74650107354694, 164.08404328918374, 0.0, 0.0, 0.0], [188.77056292020282, 293.6262036668721, 164.10602321406117, 0.0, 0.0, 0.0], [157.66305512046716, 157.66305512046716, 309.7582695392062, 0.0, 0.0, 0.0], [4.0006711244024515e-05, -0.0007321608158106738, -0.0008750409750118284, 135.99429891786622, 0.0, 0.0], [-0.00011853346541244255, -0.00023258692582592234, 0.00041060379084628565, 0.0, 135.9951760155102, 0.0], [-5.1460051850664094e-05, -0.00020094020247415158, 0.0006673106724096725, 0.0, 0.0, 143.05671608984377]], 'compliance_tensor': [[6.4, -3.2, -1.6, -0.0, 0.0, -0.0], [-3.2, 6.4, -1.6, 0.0, -0.0, 0.0], [-1.6, -1.6, 4.9, -0.0, -0.0, 0.0], [-0.0, 0.0, -0.0, 7.4, 0.0, 0.0], [0.0, -0.0, -0.0, 0.0, 7.4, -0.0], [-0.0, 0.0, 0.0, 0.0, -0.0, 7.0]], 'warnings': [], 'nsites': 4}",0.0,101.0,213.0,0.86,0.3,262.6
97,mp-19895,NiSb2,"{'Ni': 1.0, 'Sb': 2.0}",0.10098102858863905,7.811226102146754,"{'G_Reuss': 38.0, 'G_VRH': 42.0, 'G_Voigt': 45.0, 'G_Voigt_Reuss_Hill': 42.0, 'K_Reuss': 87.0, 'K_VRH': 88.0, 'K_Voigt': 88.0, 'K_Voigt_Reuss_Hill': 88.0, 'elastic_anisotropy': 0.96, 'elastic_tensor': [[120.0, 59.0, 80.0, 0.0, 0.0, 0.0], [59.0, 182.0, 42.0, 0.0, 0.0, 0.0], [80.0, 42.0, 127.0, 0.0, 0.0, 0.0], [0.0, 0.0, 0.0, 33.0, 0.0, 0.0], [0.0, 0.0, 0.0, 0.0, 49.0, 0.0], [0.0, 0.0, 0.0, 0.0, 0.0, 62.0]], 'homogeneous_poisson': 0.29, 'poisson_ratio': 0.29, 'universal_anisotropy': 0.96, 'elastic_tensor_original': [[127.00988794852978, 79.78615845323269, 40.700371005531274, 0.0, 0.0, 0.0], [80.67074265011559, 119.59169159635825, 58.98745398000301, 0.0, 0.0, 0.0], [43.145298293027516, 58.199180141311615, 181.96375576442676, 0.0, 0.0, 0.0], [7.277328812217411e-05, 9.067661033264784e-05, 0.00015870323473675732, 61.94550799876136, 0.0, 0.0], [-0.0006139470280143739, -0.00032596685851940256, -0.00020614345466206326, 0.0, 33.18865170035578, 0.0], [0.0001891634320384098, 9.09333807811537e-05, 4.9643359237209945e-05, 0.0, 0.0, 49.401471607485995]], 'compliance_tensor': [[15.9, -3.0, -9.1, 0.0, 0.0, 0.0], [-3.0, 6.5, -0.2, 0.0, 0.0, -0.0], [-9.1, -0.2, 13.7, 0.0, 0.0, 0.0], [0.0, 0.0, 0.0, 30.1, 0.0, 0.0], [0.0, 0.0, 0.0, 0.0, 20.2, 0.0], [0.0, -0.0, 0.0, 0.0, 0.0, 16.1]], 'warnings': [], 'nsites': 6}",0.0,42.0,88.0,0.96,0.29,108.36
98,mp-21272,ErNiSb,"{'Er': 1.0, 'Ni': 1.0, 'Sb': 1.0}",0.138017772506984,9.191794376837535,"{'G_Reuss': 58.0, 'G_VRH': 59.0, 'G_Voigt': 59.0, 'G_Voigt_Reuss_Hill': 59.0, 'K_Reuss': 82.0, 'K_VRH': 82.0, 'K_Voigt': 82.0, 'K_Voigt_Reuss_Hill': 82.0, 'elastic_anisotropy': 0.1, 'elastic_tensor': [[175.0, 35.0, 35.0, 0.0, 0.0, 0.0], [35.0, 175.0, 35.0, 0.0, 0.0, 0.0], [35.0, 35.0, 175.0, 0.0, 0.0, 0.0], [0.0, 0.0, 0.0, 52.0, 0.0, 0.0], [0.0, 0.0, 0.0, 0.0, 52.0, 0.0], [0.0, 0.0, 0.0, 0.0, 0.0, 52.0]], 'homogeneous_poisson': 0.21, 'poisson_ratio': 0.21, 'universal_anisotropy': 0.1, 'elastic_tensor_original': [[174.85599062505528, 35.154140250662564, 35.154140250662564, 0.0, 0.0, 0.0], [35.154140250662564, 174.85599062505528, 35.154140250662564, 0.0, 0.0, 0.0], [35.154140250662564, 35.154140250662564, 174.85599062505528, 0.0, 0.0, 0.0], [0.0, 0.0, 0.0, 52.45947085435197, 0.0, 0.0], [0.0, 0.0, 0.0, 0.0, 52.45947085435197, 0.0], [0.0, 0.0, 0.0, 0.0, 0.0, 52.45947085435197]], 'compliance_tensor': [[6.1, -1.0, -1.0, 0.0, -0.0, 0.0], [-1.0, 6.1, -1.0, -0.0, 0.0, -0.0], [-1.0, -1.0, 6.1, -0.0, -0.0, 0.0], [0.0, -0.0, -0.0, 19.1, 0.0, -0.0], [-0.0, 0.0, -0.0, 0.0, 19.1, -0.0], [0.0, -0.0, 0.0, -0.0, -0.0, 19.1]], 'warnings': ['Contains a rare earth element'], 'nsites': 3}",0.0,59.0,82.0,0.1,0.21,142.78
99,mp-22490,Sc3(NiGe)4,"{'Sc': 3.0, 'Ni': 4.0, 'Ge': 4.0}",0.13741766258561455,6.5077373878507405,"{'G_Reuss': 74.0, 'G_VRH': 75.0, 'G_Voigt': 75.0, 'G_Voigt_Reuss_Hill': 75.0, 'K_Reuss': 127.0, 'K_VRH': 127.0, 'K_Voigt': 127.0, 'K_Voigt_Reuss_Hill': 127.0, 'elastic_anisotropy': 0.08, 'elastic_tensor': [[232.0, 62.0, 84.0, 0.0, 0.0, 0.0], [62.0, 246.0, 75.0, 0.0, 0.0, 0.0], [84.0, 75.0, 220.0, 0.0, 0.0, 0.0], [0.0, 0.0, 0.0, 68.0, 0.0, 0.0], [0.0, 0.0, 0.0, 0.0, 83.0, 0.0], [0.0, 0.0, 0.0, 0.0, 0.0, 66.0]], 'homogeneous_poisson': 0.25, 'poisson_ratio': 0.25, 'universal_anisotropy': 0.08, 'elastic_tensor_original': [[219.58801186919084, 84.67094475835312, 76.44050032201278, 0.0, 0.0, 0.0], [84.01015722063227, 232.33270155372222, 62.16538715096006, 0.0, 0.0, 0.0], [74.20452819383613, 60.84169318996899, 245.58152333284806, 0.0, 0.0, 0.0], [0.1252319716818244, 0.12080763012742057, 0.12684539679757, 65.81894980601425, 0.0, 0.0], [-0.004879170113956609, -0.003832961519011697, -0.004843610161714141, 0.0, 68.1641026958347, 0.0], [0.21333458378087503, 0.19947826657047144, 0.21936565197905317, 0.002880725955046157, 0.0376818904225359, 82.91172256000864]], 'compliance_tensor': [[5.1, -0.8, -1.7, -0.0, -0.0, -0.0], [-0.8, 4.7, -1.3, 0.0, -0.0, -0.0], [-1.7, -1.3, 5.7, -0.0, 0.0, 0.0], [-0.0, 0.0, -0.0, 14.7, 0.0, -0.0], [-0.0, -0.0, 0.0, 0.0, 12.1, -0.0], [-0.0, -0.0, 0.0, -0.0, -0.0, 15.2]], 'warnings': [], 'nsites': 11}",0.0,75.0,127.0,0.08,0.25,187.5
100,mp-22636,TaNiGe,"{'Ta': 1.0, 'Ni': 1.0, 'Ge': 1.0}",0.1379800888627667,12.087661027237514,"{'G_Reuss': 71.0, 'G_VRH': 75.0, 'G_Voigt': 79.0, 'G_Voigt_Reuss_Hill': 75.0, 'K_Reuss': 198.0, 'K_VRH': 199.0, 'K_Voigt': 200.0, 'K_Voigt_Reuss_Hill': 199.0, 'elastic_anisotropy': 0.54, 'elastic_tensor': [[305.0, 111.0, 172.0, 0.0, 0.0, 0.0], [111.0, 294.0, 177.0, 0.0, 0.0, 0.0], [172.0, 177.0, 278.0, 0.0, 0.0, 0.0], [0.0, 0.0, 0.0, 106.0, 0.0, 0.0], [0.0, 0.0, 0.0, 0.0, 86.0, 0.0], [0.0, 0.0, 0.0, 0.0, 0.0, 62.0]], 'homogeneous_poisson': 0.33, 'poisson_ratio': 0.33, 'universal_anisotropy': 0.54, 'elastic_tensor_original': [[278.233389397428, 173.68898588673454, 178.6154949869692, 0.0, 0.0, 0.0], [170.12013415499175, 305.26653974799723, 110.47840982902056, 0.0, 0.0, 0.0], [175.963737318329, 110.79528741743077, 293.9378886607411, 0.0, 0.0, 0.0], [0.0009084770636080327, 0.0009936738592348064, 0.0007820173434429074, 61.90216016701114, 0.0, 0.0], [0.00017236536789070855, -4.401674530675903e-05, 0.0002915954391952798, 0.0, 106.17261997218988, 0.0], [-0.0012721980330444825, -0.001014394648867538, -0.001099207978242876, 0.0, 0.0, 85.99674366949671]], 'compliance_tensor': [[5.0, -0.0, -3.1, 0.0, 0.0, 0.0], [-0.0, 5.5, -3.5, 0.0, 0.0, 0.0], [-3.1, -3.5, 7.7, 0.0, 0.0, 0.0], [0.0, 0.0, 0.0, 9.4, 0.0, 0.0], [0.0, 0.0, 0.0, 0.0, 11.6, 0.0], [0.0, 0.0, 0.0, 0.0, 0.0, 16.2]], 'warnings': [], 'nsites': 12}",0.0,75.0,199.0,0.54,0.33,199.5
101,mp-22786,ThNiSn,"{'Th': 1.0, 'Ni': 1.0, 'Sn': 1.0}",0.13136190787963023,9.532559884607888,"{'G_Reuss': 44.0, 'G_VRH': 48.0, 'G_Voigt': 52.0, 'G_Voigt_Reuss_Hill': 48.0, 'K_Reuss': 98.0, 'K_VRH': 98.0, 'K_Voigt': 98.0, 'K_Voigt_Reuss_Hill': 98.0, 'elastic_anisotropy': 0.97, 'elastic_tensor': [[205.0, 44.0, 44.0, 0.0, 0.0, 0.0], [44.0, 205.0, 44.0, 0.0, 0.0, 0.0], [44.0, 44.0, 205.0, 0.0, 0.0, 0.0], [0.0, 0.0, 0.0, 34.0, 0.0, 0.0], [0.0, 0.0, 0.0, 0.0, 34.0, 0.0], [0.0, 0.0, 0.0, 0.0, 0.0, 34.0]], 'homogeneous_poisson': 0.29, 'poisson_ratio': 0.29, 'universal_anisotropy': 0.97, 'elastic_tensor_original': [[204.70373880056596, 43.98365064673051, 43.98365064673051, 0.0, 0.0, 0.0], [43.98365064673051, 204.70373880056596, 43.98365064673051, 0.0, 0.0, 0.0], [43.98365064673051, 43.98365064673051, 204.70373880056596, 0.0, 0.0, 0.0], [0.0, 0.0, 0.0, 33.58158329181133, 0.0, 0.0], [0.0, 0.0, 0.0, 0.0, 33.58158329181133, 0.0], [0.0, 0.0, 0.0, 0.0, 0.0, 33.58158329181133]], 'compliance_tensor': [[5.3, -0.9, -0.9, 0.0, -0.0, 0.0], [-0.9, 5.3, -0.9, -0.0, 0.0, -0.0], [-0.9, -0.9, 5.3, -0.0, -0.0, 0.0], [0.0, -0.0, -0.0, 29.8, 0.0, -0.0], [-0.0, 0.0, -0.0, 0.0, 29.8, -0.0], [0.0, -0.0, 0.0, -0.0, -0.0, 29.8]], 'warnings': ['Contains a rare earth element'], 'nsites': 3}",0.0,48.0,98.0,0.97,0.29,123.84
102,mp-2370,PrNi5,"{'Pr': 1.0, 'Ni': 5.0}",0.15899065506988028,8.509952410648225,"{'G_Reuss': 61.0, 'G_VRH': 62.0, 'G_Voigt': 63.0, 'G_Voigt_Reuss_Hill': 62.0, 'K_Reuss': 151.0, 'K_VRH': 151.0, 'K_Voigt': 151.0, 'K_Voigt_Reuss_Hill': 151.0, 'elastic_anisotropy': 0.17, 'elastic_tensor': [[233.0, 129.0, 94.0, 0.0, 0.0, -1.0], [129.0, 233.0, 94.0, 0.0, 0.0, -1.0], [94.0, 94.0, 262.0, 0.0, 0.0, -3.0], [0.0, 0.0, 0.0, 63.0, 0.0, 0.0], [0.0, 0.0, 0.0, 0.0, 63.0, 0.0], [-1.0, -1.0, -3.0, 0.0, 0.0, 52.0]], 'homogeneous_poisson': 0.32, 'poisson_ratio': 0.32, 'universal_anisotropy': 0.17, 'elastic_tensor_original': [[211.94990485944, 111.10301072824547, 77.04986787352084, 0.0, 0.0, 0.0], [148.9600648672954, 252.03403237654044, 114.64940424256892, 0.0, 0.0, -2.8999802917319174e-05], [92.40941482116929, 92.40938942156569, 262.2490696345893, 0.0, 0.0, -1.0599834574679841e-05], [0.0, 0.0, 0.0, 63.181559695902855, -7.299967935695209e-06, 0.0], [0.0, 0.0, 0.0, 0.0, 63.09257996602389, 0.0], [-2.175180234165543, -2.2815882825944542, -8.026256195849248, 0.0, 0.0, 52.62802101098703]], 'compliance_tensor': [[6.5, -3.1, -1.2, 0.0, 0.0, -0.0], [-3.1, 6.5, -1.2, 0.0, 0.0, -0.0], [-1.2, -1.2, 4.7, 0.0, 0.0, 0.2], [0.0, 0.0, 0.0, 15.8, 0.0, 0.0], [0.0, 0.0, 0.0, 0.0, 15.8, 0.0], [-0.0, -0.0, 0.2, 0.0, 0.0, 19.3]], 'warnings': ['Contains a rare earth element'], 'nsites': 6}",0.0,62.0,151.0,0.17,0.32,163.68
103,mp-24719,NiH,"{'Ni': 1.0, 'H': 1.0}",0.13272255910469374,7.751649868791108,"{'G_Reuss': 68.0, 'G_VRH': 68.0, 'G_Voigt': 69.0, 'G_Voigt_Reuss_Hill': 68.0, 'K_Reuss': 199.0, 'K_VRH': 199.0, 'K_Voigt': 199.0, 'K_Voigt_Reuss_Hill': 199.0, 'elastic_anisotropy': 0.14, 'elastic_tensor': [[274.0, 162.0, 162.0, 0.0, 0.0, 0.0], [162.0, 274.0, 162.0, 0.0, 0.0, 0.0], [162.0, 162.0, 274.0, 0.0, 0.0, 0.0], [0.0, 0.0, 0.0, 78.0, 0.0, 0.0], [0.0, 0.0, 0.0, 0.0, 78.0, 0.0], [0.0, 0.0, 0.0, 0.0, 0.0, 78.0]], 'homogeneous_poisson': 0.35, 'poisson_ratio': 0.35, 'universal_anisotropy': 0.14, 'elastic_tensor_original': [[274.03760422973164, 161.93050743087255, 161.93050743087255, 0.0, 0.0, 0.0], [161.93094272147388, 274.03670742429154, 161.93094272147388, 0.0, 0.0, 0.0], [161.93919180150786, 161.93919180150786, 274.03957483664453, 0.0, 0.0, 0.0], [-0.014672905274827652, -0.10602733846248943, 0.07675539512326066, 78.2746293757511, 0.0, 0.0], [0.001007420241718065, 0.0003560859280938635, 0.0010540124370387012, 0.0, 78.27515582655018, 0.0], [-0.0018269647153177006, -0.0003676903050342248, -0.0013467431129741698, 0.0, 0.0, 78.27600073340905]], 'compliance_tensor': [[6.5, -2.4, -2.4, -0.0, -0.0, 0.0], [-2.4, 6.5, -2.4, 0.0, -0.0, -0.0], [-2.4, -2.4, 6.5, -0.0, 0.0, -0.0], [-0.0, 0.0, -0.0, 12.8, -0.0, -0.0], [-0.0, -0.0, 0.0, -0.0, 12.8, -0.0], [0.0, -0.0, -0.0, -0.0, -0.0, 12.8]], 'warnings': [], 'nsites': 2}",0.0,68.0,199.0,0.14,0.35,183.60000000000002
104,mp-29658,ZrNiH3,"{'Zr': 1.0, 'Ni': 1.0, 'H': 3.0}",0.10889599657940685,6.340586303922494,"{'G_Reuss': 62.0, 'G_VRH': 66.0, 'G_Voigt': 69.0, 'G_Voigt_Reuss_Hill': 66.0, 'K_Reuss': 149.0, 'K_VRH': 151.0, 'K_Voigt': 152.0, 'K_Voigt_Reuss_Hill': 151.0, 'elastic_anisotropy': 0.52, 'elastic_tensor': [[221.0, 69.0, 147.0, 0.0, 0.0, 0.0], [69.0, 259.0, 112.0, 0.0, 0.0, 0.0], [147.0, 112.0, 236.0, 0.0, 0.0, 0.0], [0.0, 0.0, 0.0, 73.0, 0.0, 0.0], [0.0, 0.0, 0.0, 0.0, 81.0, 0.0], [0.0, 0.0, 0.0, 0.0, 0.0, 60.0]], 'homogeneous_poisson': 0.31, 'poisson_ratio': 0.31, 'universal_anisotropy': 0.52, 'elastic_tensor_original': [[235.79423379761545, 114.54269320668251, 146.78445531983542, 0.0, 0.0, 0.0], [109.64678636594894, 259.0167281977081, 68.46075383448037, 0.0, 0.0, 0.0], [147.11124544443027, 68.87567658721998, 221.36437147715, 0.0, 0.0, 0.0], [0.00010609335390727449, 0.00011507666068518997, 0.00020548662776316462, 59.67135419587168, 0.0, 0.0], [0.0001254132759228842, 0.00013351327221466512, 0.00011924661207903668, 0.0, 81.05551883501616, 0.0], [-0.389945469321301, -0.4196059114470967, -0.4345973257824189, 0.0, 0.0, 73.31887392228978]], 'compliance_tensor': [[7.7, 0.0, -4.8, -0.0, 0.0, 0.0], [0.0, 4.9, -2.3, -0.0, 0.0, 0.0], [-4.8, -2.3, 8.4, 0.0, 0.0, 0.0], [-0.0, -0.0, 0.0, 13.6, 0.0, 0.0], [0.0, 0.0, 0.0, 0.0, 12.3, 0.0], [0.0, 0.0, 0.0, 0.0, 0.0, 16.8]], 'warnings': [], 'nsites': 10}",0.0,66.0,151.0,0.52,0.31,172.92000000000002
105,mp-30182,ThAl3Ni2,"{'Th': 1.0, 'Al': 3.0, 'Ni': 2.0}",0.12607957798476502,7.187351802115494,"{'G_Reuss': 73.0, 'G_VRH': 74.0, 'G_Voigt': 75.0, 'G_Voigt_Reuss_Hill': 74.0, 'K_Reuss': 127.0, 'K_VRH': 128.0, 'K_Voigt': 128.0, 'K_Voigt_Reuss_Hill': 128.0, 'elastic_anisotropy': 0.11, 'elastic_tensor': [[208.0, 81.0, 83.0, 0.0, 0.0, 0.0], [81.0, 208.0, 83.0, 0.0, 0.0, 0.0], [83.0, 83.0, 243.0, 0.0, 0.0, 0.0], [0.0, 0.0, 0.0, 87.0, 0.0, 0.0], [0.0, 0.0, 0.0, 0.0, 87.0, 0.0], [0.0, 0.0, 0.0, 0.0, 0.0, 63.0]], 'homogeneous_poisson': 0.26, 'poisson_ratio': 0.26, 'universal_anisotropy': 0.11, 'elastic_tensor_original': [[205.9288930136227, 83.72281931034982, 92.63795689823075, 0.0, 0.0, 0.0], [82.25285824289712, 206.19205428150167, 93.33026383947467, 0.0, 0.0, -2.2200236877849913e-05], [72.80314641560287, 72.80314181555839, 243.46397645851346, 0.0, 0.0, -7.800075406284547e-06], [0.0, 0.0, 0.0, 87.06620638048395, -9.400006032715234e-06, 0.0], [0.0, 0.0, 0.0, 0.0, 86.81834387539824, 0.0], [-1.4209324632561842e-05, 0.0, 0.0, 0.0, 0.0, 64.84308581699294]], 'compliance_tensor': [[6.1, -1.8, -1.5, 0.0, 0.0, 0.0], [-1.8, 6.1, -1.5, 0.0, 0.0, 0.0], [-1.5, -1.5, 5.1, 0.0, 0.0, -0.0], [0.0, 0.0, 0.0, 11.5, 0.0, 0.0], [0.0, 0.0, 0.0, 0.0, 11.5, 0.0], [0.0, 0.0, -0.0, 0.0, 0.0, 15.8]], 'warnings': ['Contains a rare earth element'], 'nsites': 6}",0.0,74.0,128.0,0.11,0.26,186.48