,mp_id,Formula,Composition,IPF,Density,Elastic_Tensor,E_above_Hull,G_VRH,K_VRH,Elastic_Anisotropy,poisson_ratio,Y_Modulus
146,mp-37614,Al2NiO4,"{'Al': 2.0, 'Ni': 1.0, 'O': 4.0}",0.5669497797223938,4.400829015666573,"{'G_Reuss': 106.0, 'G_VRH': 109.0, 'G_Voigt': 112.0, 'G_Voigt_Reuss_Hill': 109.0, 'K_Reuss': 203.0, 'K_VRH': 203.0, 'K_Voigt': 204.0, 'K_Voigt_Reuss_Hill': 203.0, 'elastic_anisotropy': 0.32, 'elastic_tensor': [[373.0, 145.0, 91.0, 0.0, 0.0, 0.0], [145.0, 326.0, 156.0, 0.0, 0.0, 0.0], [91.0, 156.0, 349.0, 0.0, 0.0, 0.0], [0.0, 0.0, 0.0, 127.0, 0.0, 0.0], [0.0, 0.0, 0.0, 0.0, 78.0, 0.0], [0.0, 0.0, 0.0, 0.0, 0.0, 138.0]], 'homogeneous_poisson': 0.27, 'poisson_ratio': 0.27, 'universal_anisotropy': 0.32, 'elastic_tensor_original': [[349.2004558503304, 91.61677973778025, 155.33022850800245, 9.416427725533143e-06, 1.1571034069511062e-06, 1.2269286125429833e-05], [90.94246039345934, 373.25414001735146, 144.61477886711913, 0.0, 0.0, 0.0], [156.19595521329387, 145.5619857463266, 326.0550401899183, 0.0, 0.0, 0.0], [-5.341996757207652e-05, -2.9493317182266926e-05, -4.636629549841508e-06, 137.9332329560117, 2.533331040593268e-07, -7.333326696454195e-07], [5.222997318687852e-05, 4.051663508150907e-05, 4.9949973996912345e-05, 0.0, 127.18149416668882, 0.0], [0.00010506990361220034, 0.00013239648483764736, 4.009970716683912e-05, -1.6793292999765177e-05, 7.999980785914334e-07, 78.30852151726069]], 'compliance_tensor': [[3.3, -1.3, -0.3, 0.0, 0.0, 0.0], [-1.3, 4.4, -1.6, 0.0, 0.0, 0.0], [-0.3, -1.6, 3.7, 0.0, 0.0, 0.0], [0.0, 0.0, 0.0, 7.9, 0.0, 0.0], [0.0, 0.0, 0.0, 0.0, 12.8, 0.0], [0.0, 0.0, 0.0, 0.0, 0.0, 7.2]], 'warnings': [], 'nsites': 28}",0.0,109.0,203.0,0.32,0.27,276.86
147,mp-4195,Tm(NiGe)2,"{'Tm': 1.0, 'Ni': 2.0, 'Ge': 2.0}",0.15979567291915792,9.004141944949442,"{'G_Reuss': 46.0, 'G_VRH': 48.0, 'G_Voigt': 49.0, 'G_Voigt_Reuss_Hill': 48.0, 'K_Reuss': 118.0, 'K_VRH': 120.0, 'K_Voigt': 121.0, 'K_Voigt_Reuss_Hill': 120.0, 'elastic_anisotropy': 0.33, 'elastic_tensor': [[192.0, 55.0, 99.0, 0.0, 0.0, 0.0], [55.0, 192.0, 99.0, 0.0, 0.0, 0.0], [99.0, 99.0, 200.0, 0.0, 0.0, 0.0], [0.0, 0.0, 0.0, 51.0, 0.0, 0.0], [0.0, 0.0, 0.0, 0.0, 51.0, 0.0], [0.0, 0.0, 0.0, 0.0, 0.0, 34.0]], 'homogeneous_poisson': 0.32, 'poisson_ratio': 0.32, 'universal_anisotropy': 0.33, 'elastic_tensor_original': [[191.51726505109872, 54.75392969187726, 101.68572448495014, 0.0, 0.0, 0.0], [54.75392969187726, 191.51726505109872, 101.68572448495014, 0.0, 0.0, 0.0], [95.69683929232632, 95.69683929232632, 200.0202968311305, 0.0, 0.0, 0.0], [0.0, 0.0, 0.0, 51.369659680572184, 0.0, 0.0], [0.0, 0.0, 0.0, 0.0, 51.369659680572184, 0.0], [0.3367386448208633, -0.33673864482086335, 0.0, 1.4999866135746676e-07, -1.4999866135694676e-07, 33.67187979979836]], 'compliance_tensor': [[7.0, -0.3, -3.3, 0.0, -0.0, -0.0], [-0.3, 7.0, -3.3, -0.0, 0.0, 0.0], [-3.3, -3.3, 8.3, -0.0, -0.0, 0.0], [0.0, -0.0, -0.0, 19.5, 0.0, -0.0], [-0.0, 0.0, -0.0, 0.0, 19.5, -0.0], [-0.0, 0.0, 0.0, -0.0, -0.0, 29.7]], 'warnings': ['Contains a rare earth element'], 'nsites': 5}",0.0,48.0,120.0,0.33,0.32,126.72
148,mp-5215,NdNiGe2,"{'Nd': 1.0, 'Ni': 1.0, 'Ge': 2.0}",0.1882925776587224,7.648596593349585,"{'G_Reuss': 48.0, 'G_VRH': 49.0, 'G_Voigt': 50.0, 'G_Voigt_Reuss_Hill': 49.0, 'K_Reuss': 83.0, 'K_VRH': 84.0, 'K_Voigt': 84.0, 'K_Voigt_Reuss_Hill': 84.0, 'elastic_anisotropy': 0.21, 'elastic_tensor': [[137.0, 67.0, 47.0, 0.0, 0.0, 0.0], [67.0, 145.0, 56.0, 0.0, 0.0, 0.0], [47.0, 56.0, 134.0, 0.0, 0.0, 0.0], [0.0, 0.0, 0.0, 62.0, 0.0, 0.0], [0.0, 0.0, 0.0, 0.0, 47.0, 0.0], [0.0, 0.0, 0.0, 0.0, 0.0, 60.0]], 'homogeneous_poisson': 0.25, 'poisson_ratio': 0.25, 'universal_anisotropy': 0.21, 'elastic_tensor_original': [[136.5161288910074, 64.44620502460661, 42.62284072585416, 3.7999928432461453e-06, 0.0, 0.0], [68.7201518550811, 144.70913454290041, 53.666326425518534, 8.599906098929205e-06, 0.0, 0.0], [51.897287197208826, 59.20753739103948, 134.0917687682694, -3.600051804415691e-06, 0.0, 0.0], [0.0, 0.0, 0.0, 61.78305994940112, 0.0, 0.0], [0.0, 0.0, 0.0, 0.0, 47.498432071163045, -3.9999819760052514e-07], [0.0, 0.0, 0.0, 0.0, 3.600020726955577e-06, 60.49298088002593]], 'compliance_tensor': [[9.8, -3.8, -1.9, -0.0, 0.0, 0.0], [-3.8, 9.7, -2.8, 0.0, 0.0, 0.0], [-1.9, -2.8, 9.3, 0.0, 0.0, 0.0], [-0.0, 0.0, 0.0, 16.2, 0.0, 0.0], [0.0, 0.0, 0.0, 0.0, 21.1, 0.0], [0.0, 0.0, 0.0, 0.0, 0.0, 16.5]], 'warnings': ['Contains a rare earth element'], 'nsites': 8}",0.0,49.0,84.0,0.21,0.25,122.5
149,mp-5292,Ca(SiNi)2,"{'Ca': 1.0, 'Si': 2.0, 'Ni': 2.0}",0.14236169668803164,4.624874624123846,"{'G_Reuss': 55.0, 'G_VRH': 56.0, 'G_Voigt': 58.0, 'G_Voigt_Reuss_Hill': 56.0, 'K_Reuss': 104.0, 'K_VRH': 104.0, 'K_Voigt': 104.0, 'K_Voigt_Reuss_Hill': 104.0, 'elastic_anisotropy': 0.25, 'elastic_tensor': [[189.0, 43.0, 77.0, 0.0, 0.0, 0.0], [43.0, 189.0, 77.0, 0.0, 0.0, 0.0], [77.0, 77.0, 170.0, 0.0, 0.0, 0.0], [0.0, 0.0, 0.0, 64.0, 0.0, 0.0], [0.0, 0.0, 0.0, 0.0, 64.0, 0.0], [0.0, 0.0, 0.0, 0.0, 0.0, 43.0]], 'homogeneous_poisson': 0.27, 'poisson_ratio': 0.27, 'universal_anisotropy': 0.25, 'elastic_tensor_original': [[188.65183148053185, 43.170952603815486, 76.9240004982512, 0.0, 0.0, 0.0], [43.17071619242692, 188.6519032953729, 76.92371974618972, 0.0, 0.0, 0.0], [76.54948268986949, 76.54948268986949, 169.85673117819854, 0.0, 0.0, 0.0], [6.537701101418843e-05, -0.00047629696783269254, -0.00022149326706243772, 64.14479430751425, 0.0, 0.0], [-0.000595445332235964, -0.00013124505716247554, -0.0004269020370516816, 0.0, 64.14487080419823, 0.0], [0.00017022720876995825, 6.835342837379119e-05, 5.973343818915478e-05, 0.0, 0.0, 42.579990680919174]], 'compliance_tensor': [[6.5, -0.4, -2.8, -0.0, -0.0, -0.0], [-0.4, 6.5, -2.8, -0.0, 0.0, 0.0], [-2.8, -2.8, 8.4, 0.0, -0.0, -0.0], [-0.0, -0.0, 0.0, 15.6, -0.0, -0.0], [-0.0, 0.0, -0.0, -0.0, 15.6, -0.0], [-0.0, 0.0, -0.0, -0.0, -0.0, 23.5]], 'warnings': [], 'nsites': 5}",0.0,56.0,104.0,0.25,0.27,142.24
150,mp-569385,DyAl2Ni,"{'Dy': 1.0, 'Al': 2.0, 'Ni': 1.0}",0.14838839354199992,6.560884728873083,"{'G_Reuss': 53.0, 'G_VRH': 55.0, 'G_Voigt': 58.0, 'G_Voigt_Reuss_Hill': 55.0, 'K_Reuss': 94.0, 'K_VRH': 96.0, 'K_Voigt': 97.0, 'K_Voigt_Reuss_Hill': 96.0, 'elastic_anisotropy': 0.51, 'elastic_tensor': [[159.0, 56.0, 85.0, 0.0, 0.0, 0.0], [56.0, 133.0, 66.0, 0.0, 0.0, 0.0], [85.0, 66.0, 171.0, 0.0, 0.0, 0.0], [0.0, 0.0, 0.0, 51.0, 0.0, 0.0], [0.0, 0.0, 0.0, 0.0, 93.0, 0.0], [0.0, 0.0, 0.0, 0.0, 0.0, 60.0]], 'homogeneous_poisson': 0.26, 'poisson_ratio': 0.26, 'universal_anisotropy': 0.51, 'elastic_tensor_original': [[158.53360185957476, 51.457770918497644, 75.74531385809979, -4.999965031619225e-06, 0.0, 0.0], [60.46362415259802, 133.16819858932735, 59.62302620810664, -1.2999748610466174e-05, 0.0, 0.0], [93.85203935788135, 71.94163400603125, 171.08409833675262, -7.000021134449198e-06, 0.0, 0.0], [0.0, 0.0, -9.97730200359968e-06, 50.62743510582521, 0.0, 0.0], [0.0, 0.0, 0.0, 0.0, 92.59513228406304, 0.0], [0.0, 0.0, 0.0, 0.0, -5.800004974112289e-06, 59.87148723049511]], 'compliance_tensor': [[9.0, -1.9, -3.7, 0.0, 0.0, 0.0], [-1.9, 9.7, -2.8, -0.0, 0.0, 0.0], [-3.7, -2.8, 8.7, -0.0, 0.0, 0.0], [0.0, -0.0, -0.0, 19.8, 0.0, 0.0], [0.0, 0.0, 0.0, 0.0, 10.8, -0.0], [0.0, 0.0, 0.0, 0.0, -0.0, 16.7]], 'warnings': ['Contains a rare earth element'], 'nsites': 8}",0.0,55.0,96.0,0.51,0.26,138.6
151,mp-569523,Y2InNi2,"{'Y': 2.0, 'In': 1.0, 'Ni': 2.0}",0.15798809718770465,6.600118627223527,"{'G_Reuss': 36.0, 'G_VRH': 38.0, 'G_Voigt': 40.0, 'G_Voigt_Reuss_Hill': 38.0, 'K_Reuss': 77.0, 'K_VRH': 77.0, 'K_Voigt': 77.0, 'K_Voigt_Reuss_Hill': 77.0, 'elastic_anisotropy': 0.62, 'elastic_tensor': [[109.0, 61.0, 66.0, 0.0, 0.0, 0.0], [61.0, 126.0, 50.0, 0.0, 0.0, 0.0], [66.0, 50.0, 107.0, 0.0, 0.0, 0.0], [0.0, 0.0, 0.0, 42.0, 0.0, 0.0], [0.0, 0.0, 0.0, 0.0, 49.0, 0.0], [0.0, 0.0, 0.0, 0.0, 0.0, 54.0]], 'homogeneous_poisson': 0.29, 'poisson_ratio': 0.29, 'universal_anisotropy': 0.62, 'elastic_tensor_original': [[109.47825259340166, 59.159915901074584, 63.386047629091955, 0.0, 0.0, 0.0], [63.57196090631912, 126.45417128064818, 50.04620819451964, 0.0, 0.0, 0.0], [68.33279155134458, 49.865618084754075, 107.13330438733085, 0.0, 0.0, 0.0], [0.0, 0.0, 0.0, 41.53577597777968, 0.0, 0.0], [-0.0005876315154797936, -0.0005884315154067964, -0.0006577148440261551, 0.0, 49.02900123938106, 0.0], [-0.0006195713767124817, -0.0006081280795181676, -0.0006246713606070781, 0.0, 0.0, 53.917522449083194]], 'compliance_tensor': [[16.7, -5.0, -8.0, 0.0, 0.0, -0.0], [-5.0, 11.2, -2.2, 0.0, 0.0, 0.0], [-8.0, -2.2, 15.2, 0.0, 0.0, 0.0], [0.0, 0.0, 0.0, 24.1, 0.0, 0.0], [0.0, 0.0, 0.0, 0.0, 20.4, 0.0], [-0.0, 0.0, 0.0, 0.0, 0.0, 18.5]], 'warnings': [], 'nsites': 5}",0.0,38.0,77.0,0.62,0.29,98.04
152,mp-569931,Pr(NiP)2,"{'Pr': 1.0, 'Ni': 2.0, 'P': 2.0}",0.12948976568064915,7.042607920537901,"{'G_Reuss': 76.0, 'G_VRH': 79.0, 'G_Voigt': 82.0, 'G_Voigt_Reuss_Hill': 79.0, 'K_Reuss': 109.0, 'K_VRH': 111.0, 'K_Voigt': 113.0, 'K_Voigt_Reuss_Hill': 111.0, 'elastic_anisotropy': 0.48, 'elastic_tensor': [[236.0, 56.0, 71.0, 0.0, 0.0, 0.0], [56.0, 236.0, 71.0, 0.0, 0.0, 0.0], [71.0, 71.0, 148.0, 0.0, 0.0, 0.0], [0.0, 0.0, 0.0, 102.0, 0.0, 0.0], [0.0, 0.0, 0.0, 0.0, 102.0, 0.0], [0.0, 0.0, 0.0, 0.0, 0.0, 67.0]], 'homogeneous_poisson': 0.21, 'poisson_ratio': 0.21, 'universal_anisotropy': 0.48, 'elastic_tensor_original': [[236.3766803504106, 55.70151400097994, 77.40784738026335, 0.0, -8.00001812536239e-06, 1.400003171938418e-05], [55.701514001113104, 236.37668035090414, 77.40784738042639, 4.254511814131805e-08, 8.042559193605214e-06, 5.954952305513159e-05], [64.78411456079033, 64.78411456079033, 148.21667812187582, 0.0, 1.5399944175964375e-05, 1.6399940551026992e-05], [0.0, 2.1185642030732592e-05, 0.0, 101.95342229764358, 2.450018988006726e-05, 0.0], [0.0, 0.0, 0.0, 1.1731707554904646e-06, 101.95342229790418, 1.0592810257275126e-05], [0.6701599252644991, -0.6701261776528071, 0.0, -3.018043288392518e-07, 2.999981204695235e-07, 67.00883540171655]], 'compliance_tensor': [[5.0, -0.5, -2.1, 0.0, 0.0, -0.0], [-0.5, 5.0, -2.1, -0.0, 0.0, -0.0], [-2.1, -2.1, 8.8, -0.0, 0.0, 0.0], [0.0, -0.0, -0.0, 9.8, -0.0, 0.0], [0.0, 0.0, 0.0, -0.0, 9.8, -0.0], [-0.0, -0.0, 0.0, 0.0, -0.0, 14.9]], 'warnings': ['Contains a rare earth element'], 'nsites': 5}",0.0,79.0,111.0,0.48,0.21,191.18
153,mp-570272,Tb2Mg3Ni2,"{'Tb': 2.0, 'Mg': 3.0, 'Ni': 2.0}",0.12753217998756747,5.573214205238175,"{'G_Reuss': 36.0, 'G_VRH': 28.0, 'G_Voigt': 20.0, 'G_Voigt_Reuss_Hill': 28.0, 'K_Reuss': 89.0, 'K_VRH': 67.0, 'K_Voigt': 46.0, 'K_Voigt_Reuss_Hill': 67.0, 'elastic_anisotropy': -2.67, 'elastic_tensor': [[76.0, 73.0, 7.0, 0.0, 0.0, 0.0], [73.0, 80.0, 56.0, 0.0, 0.0, 0.0], [7.0, 56.0, -13.0, 0.0, 0.0, 0.0], [0.0, 0.0, 0.0, 20.0, 0.0, 0.0], [0.0, 0.0, 0.0, 0.0, 35.0, 0.0], [0.0, 0.0, 0.0, 0.0, 0.0, 44.0]], 'homogeneous_poisson': 0.32, 'poisson_ratio': 0.32, 'universal_anisotropy': -2.67, 'elastic_tensor_original': [[76.46409272822872, 105.78266641140804, -43.18830917912798, 0.0, 0.0, 9.999828331287276e-06], [39.392439689134754, 80.16149622870107, 24.201208084535306, 0.0, 0.0, 0.0], [57.532733437486726, 88.12326360260745, -13.189890160633306, 0.0, 0.0, 0.0], [0.0, 0.0, 0.0, 20.037723476781668, 0.0, 0.0], [0.0, 0.0, 0.0, 0.0, 35.110892844421315, 0.0], [4.305228297600278e-06, 0.0, 0.0, 0.0, 0.0, 44.11952119293319]], 'compliance_tensor': [[21.3, -6.9, -17.7, 0.0, 0.0, -0.0], [-6.9, 5.3, 19.0, 0.0, 0.0, -0.0], [-17.7, 19.0, -4.3, 0.0, 0.0, 0.0], [0.0, 0.0, 0.0, 49.9, -0.0, 0.0], [0.0, 0.0, 0.0, -0.0, 28.5, 0.0], [-0.0, -0.0, 0.0, 0.0, 0.0, 22.7]], 'warnings': ['Contains a rare earth element', 'Elastic tensor has a negative eigenvalue'], 'nsites': 7}",0.0,28.0,67.0,-2.67,0.32,73.92
154,mp-5748,HfAlNi2,"{'Hf': 1.0, 'Al': 1.0, 'Ni': 2.0}",0.1289817232301653,9.53065434016704,"{'G_Reuss': 48.0, 'G_VRH': 49.0, 'G_Voigt': 49.0, 'G_Voigt_Reuss_Hill': 49.0, 'K_Reuss': 164.0, 'K_VRH': 164.0, 'K_Voigt': 164.0, 'K_Voigt_Reuss_Hill': 164.0, 'elastic_anisotropy': 0.12, 'elastic_tensor': [[218.0, 138.0, 138.0, 0.0, 0.0, 0.0], [138.0, 218.0, 138.0, 0.0, 0.0, 0.0], [138.0, 138.0, 218.0, 0.0, 0.0, 0.0], [0.0, 0.0, 0.0, 56.0, 0.0, 0.0], [0.0, 0.0, 0.0, 0.0, 56.0, 0.0], [0.0, 0.0, 0.0, 0.0, 0.0, 56.0]], 'homogeneous_poisson': 0.36, 'poisson_ratio': 0.36, 'universal_anisotropy': 0.12, 'elastic_tensor_original': [[217.3283846547391, 138.10876257236873, 138.10876257236873, 0.0, 0.0, 0.0], [136.82233869259534, 219.18471601263306, 136.82233869259534, 0.0, 0.0, 0.0], [137.9057069421479, 137.9057069421479, 218.251057483188, 0.0, 0.0, 0.0], [-0.0006083064638125801, 0.00023383992524177405, -0.0003430800575098301, 55.55011950942504, 0.0, 0.0], [-0.00023442400047385382, -0.0003162766149742706, -0.0001610335192800855, 0.0, 55.54938422335301, 0.0], [-6.871352776237474e-05, -0.0004897640752441341, -0.0002461668327879765, 0.0, 0.0, 55.54989795358749]], 'compliance_tensor': [[8.9, -3.5, -3.5, 0.0, -0.0, 0.0], [-3.5, 8.9, -3.5, 0.0, 0.0, -0.0], [-3.5, -3.5, 8.9, -0.0, 0.0, 0.0], [0.0, 0.0, -0.0, 18.0, -0.0, -0.0], [-0.0, 0.0, 0.0, -0.0, 18.0, -0.0], [0.0, -0.0, 0.0, -0.0, -0.0, 18.0]], 'warnings': [], 'nsites': 4}",0.0,49.0,164.0,0.12,0.36,133.28
155,mp-5916,Yb(SiNi)2,"{'Yb': 1.0, 'Si': 2.0, 'Ni': 2.0}",0.13336295212207966,7.637768457980564,"{'G_Reuss': 55.0, 'G_VRH': 56.0, 'G_Voigt': 56.0, 'G_Voigt_Reuss_Hill': 56.0, 'K_Reuss': 94.0, 'K_VRH': 94.0, 'K_Voigt': 95.0, 'K_Voigt_Reuss_Hill': 94.0, 'elastic_anisotropy': 0.11, 'elastic_tensor': [[175.0, 35.0, 65.0, 0.0, 0.0, 0.0], [35.0, 175.0, 65.0, 0.0, 0.0, 0.0], [65.0, 65.0, 172.0, 0.0, 0.0, 0.0], [0.0, 0.0, 0.0, 58.0, 0.0, 0.0], [0.0, 0.0, 0.0, 0.0, 58.0, 0.0], [0.0, 0.0, 0.0, 0.0, 0.0, 47.0]], 'homogeneous_poisson': 0.25, 'poisson_ratio': 0.25, 'universal_anisotropy': 0.11, 'elastic_tensor_original': [[174.74037780705714, 35.19181138447301, 62.675045389941296, -6.600147934817953e-06, -6.600147934817953e-06, 0.0], [35.19181138447301, 174.74037780705714, 62.675045389941296, -6.600147931830202e-06, 6.60014793878853e-06, 0.0], [66.92524389426998, 66.92524389426998, 171.79347314261193, -1.8000302553058033e-05, 1.8000302553058033e-05, 0.0], [0.0, 0.0, 0.0, 57.79957709364112, -5.000057994799248e-07, 0.0], [0.0, 0.0, 0.0, 5.000057996357813e-07, 57.79957709364112, 0.0], [0.4693640873753752, -0.4693640873753762, 0.0, 2.9999912906374516e-07, 2.9999912923683343e-07, 46.933978844591884]], 'compliance_tensor': [[6.7, -0.5, -2.3, 0.0, -0.0, 0.0], [-0.5, 6.7, -2.3, -0.0, 0.0, 0.0], [-2.3, -2.3, 7.6, -0.0, -0.0, -0.0], [0.0, -0.0, -0.0, 17.3, 0.0, -0.0], [-0.0, 0.0, -0.0, 0.0, 17.3, -0.0], [0.0, 0.0, -0.0, -0.0, -0.0, 21.3]], 'warnings': ['Contains a rare earth element'], 'nsites': 5}",0.0,56.0,94.0,0.11,0.25,140.0
156,mp-672299,YInNi,"{'Y': 1.0, 'In': 1.0, 'Ni': 1.0}",0.1608781017358416,7.089476145152091,"{'G_Reuss': 32.0, 'G_VRH': 34.0, 'G_Voigt': 37.0, 'G_Voigt_Reuss_Hill': 34.0, 'K_Reuss': 86.0, 'K_VRH': 86.0, 'K_Voigt': 86.0, 'K_Voigt_Reuss_Hill': 86.0, 'elastic_anisotropy': 0.69, 'elastic_tensor': [[124.0, 65.0, 72.0, 0.0, 0.0, 0.0], [65.0, 124.0, 72.0, 0.0, 0.0, 0.0], [72.0, 72.0, 110.0, 0.0, 0.0, 0.0], [0.0, 0.0, 0.0, 52.0, 0.0, 0.0], [0.0, 0.0, 0.0, 0.0, 52.0, 0.0], [0.0, 0.0, 0.0, 0.0, 0.0, 30.0]], 'homogeneous_poisson': 0.32, 'poisson_ratio': 0.32, 'universal_anisotropy': 0.69, 'elastic_tensor_original': [[123.39915933750913, 66.69686447151238, 73.1282043603391, 0.0, 0.0, 0.0], [66.95399647910912, 122.1793657883975, 70.88066700130565, 0.0, 0.0, 0.0], [71.52870014969984, 71.52868045213305, 109.9504521805225, 0.0, 0.0, 0.0], [-0.00024438966353285455, 0.00010181712699214303, -4.695613671686237e-05, 51.90676324588616, 0.0, 0.0], [0.00010081667025531266, 1.7110000609899098e-05, 5.393666858710693e-05, 0.0, 51.98365251037649, 0.0], [-0.0026524437707767367, -0.0026541804377299156, -0.0027894171266990833, 0.0, 0.0, 31.334505744358125]], 'compliance_tensor': [[13.6, -3.2, -6.8, -0.0, -0.0, -0.0], [-3.2, 13.6, -6.8, 0.0, 0.0, -0.0], [-6.8, -6.8, 18.0, 0.0, 0.0, 0.0], [-0.0, 0.0, 0.0, 19.3, -0.0, -0.0], [-0.0, 0.0, 0.0, -0.0, 19.3, -0.0], [-0.0, -0.0, 0.0, 0.0, -0.0, 33.7]], 'warnings': [], 'nsites': 9}",0.0,34.0,86.0,0.69,0.32,89.76
157,mp-7186,NdAl3Ni2,"{'Nd': 1.0, 'Al': 3.0, 'Ni': 2.0}",0.16059606785398314,5.719691775737301,"{'G_Reuss': 62.0, 'G_VRH': 63.0, 'G_Voigt': 64.0, 'G_Voigt_Reuss_Hill': 63.0, 'K_Reuss': 116.0, 'K_VRH': 121.0, 'K_Voigt': 126.0, 'K_Voigt_Reuss_Hill': 121.0, 'elastic_anisotropy': 0.24, 'elastic_tensor': [[174.0, 61.0, 98.0, 0.0, 0.0, 0.0], [61.0, 174.0, 98.0, 0.0, 0.0, 0.0], [98.0, 98.0, 275.0, 0.0, 0.0, 0.0], [0.0, 0.0, 0.0, 71.0, 0.0, 0.0], [0.0, 0.0, 0.0, 0.0, 71.0, 0.0], [0.0, 0.0, 0.0, 0.0, 0.0, 57.0]], 'homogeneous_poisson': 0.28, 'poisson_ratio': 0.28, 'universal_anisotropy': 0.24, 'elastic_tensor_original': [[173.67525318450038, 65.6408398031042, 73.60135377377216, 0.0, 0.0, 7.0001267773609785e-06], [60.32027754007757, 170.1475733279075, 69.47168392871663, 0.0, 0.0, 1.819986752659719e-05], [124.48387590135675, 124.48383150209594, 275.16152250965445, 0.0, 0.0, 1.3399776910710192e-05], [0.0, 0.0, 0.0, 71.03935628000848, 7.6000729940234064e-06, 0.0], [0.0, 0.0, 0.0, 0.0, 70.57908033352993, 0.0], [1.2583725941488996e-05, 0.0, 0.0, 0.0, 0.0, 58.84687697988533]], 'compliance_tensor': [[7.4, -1.4, -2.2, 0.0, 0.0, -0.0], [-1.4, 7.4, -2.2, 0.0, 0.0, -0.0], [-2.2, -2.2, 5.2, 0.0, 0.0, 0.0], [0.0, 0.0, 0.0, 14.1, -0.0, 0.0], [0.0, 0.0, 0.0, -0.0, 14.1, 0.0], [-0.0, -0.0, 0.0, 0.0, 0.0, 17.7]], 'warnings': ['Contains a rare earth element'], 'nsites': 6}",0.0,63.0,121.0,0.24,0.28,161.28
158,mp-865529,Ti2NiIr,"{'Ti': 2.0, 'Ni': 1.0, 'Ir': 1.0}",0.15213341492326607,10.01044668827803,"{'G_Reuss': -19.0, 'G_VRH': 12.0, 'G_Voigt': 43.0, 'G_Voigt_Reuss_Hill': 12.0, 'K_Reuss': 195.0, 'K_VRH': 195.0, 'K_Voigt': 195.0, 'K_Voigt_Reuss_Hill': 195.0, 'elastic_anisotropy': -16.34, 'elastic_tensor': [[186.0, 200.0, 200.0, 0.0, 0.0, 0.0], [200.0, 186.0, 200.0, 0.0, 0.0, 0.0], [200.0, 200.0, 186.0, 0.0, 0.0, 0.0], [0.0, 0.0, 0.0, 76.0, 0.0, 0.0], [0.0, 0.0, 0.0, 0.0, 76.0, 0.0], [0.0, 0.0, 0.0, 0.0, 0.0, 76.0]], 'homogeneous_poisson': 0.47, 'poisson_ratio': 0.47, 'universal_anisotropy': -16.34, 'elastic_tensor_original': [[185.94868016034619, 199.13897899076483, 199.1423736195596, -0.0013815679150714787, -0.0016663721597945263, -0.0017956871720034634], [199.42619149564516, 186.22558036192532, 199.42981343317936, -0.001706112286965184, -0.001958916951376115, -0.0020469357470974704], [200.43933215045834, 200.43933215045834, 187.25304768954132, 0.0, 0.0, 0.0], [-0.007499356826288571, -0.007368186765194818, -0.007238090037933611, 76.06399385146888, 0.0, 0.0], [0.00038195017789924773, 0.00026202678871098075, 0.0003653835035171959, 0.0, 76.06469027845992, 0.0], [-0.006576959729998084, -0.006737979804998509, -0.005738112672625676, 0.0, 0.0, 76.06306899437142]], 'compliance_tensor': [[-50.0, 25.8, 25.8, 0.0, 0.0, -0.0], [25.8, -50.0, 25.8, -0.0, -0.0, 0.0], [25.8, 25.8, -50.0, 0.0, -0.0, -0.0], [0.0, -0.0, 0.0, 13.1, -0.0, 0.0], [0.0, -0.0, -0.0, -0.0, 13.1, 0.0], [-0.0, 0.0, -0.0, 0.0, 0.0, 13.1]], 'warnings': ['Elastic tensor has a negative eigenvalue', 'c11 and c12 are within 5% or c12 is greater than c11', 'c11 and c13 are within 5% or c13 is greater than c11', 'c11 and c23 are within 5% or c23 is greater than c11', 'One or more K, G below 2 GPa'], 'nsites': 4}",0.0,12.0,195.0,-16.34,0.47,35.28