,mp_id,Formula,Composition,IPF,Density,Elastic_Tensor,E_above_Hull,G_VRH,K_VRH,Elastic_Anisotropy,poisson_ratio,Y_Modulus
198,mp-865728,Ti2ReNi,"{'Ti': 2.0, 'Re': 1.0, 'Ni': 1.0}",0.14519036049025477,9.791110986112407,"{'G_Reuss': 78.0, 'G_VRH': 79.0, 'G_Voigt': 80.0, 'G_Voigt_Reuss_Hill': 79.0, 'K_Reuss': 192.0, 'K_VRH': 192.0, 'K_Voigt': 192.0, 'K_Voigt_Reuss_Hill': 192.0, 'elastic_anisotropy': 0.11, 'elastic_tensor': [[280.0, 149.0, 149.0, 0.0, 0.0, 0.0], [149.0, 280.0, 149.0, 0.0, 0.0, 0.0], [149.0, 149.0, 280.0, 0.0, 0.0, 0.0], [0.0, 0.0, 0.0, 89.0, 0.0, 0.0], [0.0, 0.0, 0.0, 0.0, 89.0, 0.0], [0.0, 0.0, 0.0, 0.0, 0.0, 89.0]], 'homogeneous_poisson': 0.32, 'poisson_ratio': 0.32, 'universal_anisotropy': 0.11, 'elastic_tensor_original': [[281.7665912777641, 150.28706875039086, 150.28706875039086, 0.0, 0.0, 0.0], [149.8087744482515, 281.68047429843944, 149.8087744482515, 0.0, 0.0, 0.0], [145.42170225939148, 145.42170225939148, 277.64545532490473, 0.0, 0.0, 0.0], [-0.017807376739852835, -0.013122649849751181, -0.013725951035692447, 88.67681330899467, 0.0, 0.0], [0.06086832684362926, 0.06111619410319822, 0.060136385228033974, 0.0, 88.67876977367477, 0.0], [0.0007156912422550887, 0.0006965612005237996, 0.0006080114308899974, 0.0, 0.0, 88.67652990519053]], 'compliance_tensor': [[5.6, -2.0, -2.0, 0.0, -0.0, -0.0], [-2.0, 5.6, -2.0, -0.0, -0.0, 0.0], [-2.0, -2.0, 5.6, -0.0, 0.0, -0.0], [0.0, -0.0, -0.0, 11.3, -0.0, 0.0], [-0.0, -0.0, 0.0, -0.0, 11.3, -0.0], [-0.0, 0.0, -0.0, 0.0, -0.0, 11.3]], 'warnings': [], 'nsites': 4}",0.0,79.0,192.0,0.11,0.32,208.56
199,mp-865878,Ti2TcNi,"{'Ti': 2.0, 'Tc': 1.0, 'Ni': 1.0}",0.15135615151453718,7.393032893959293,"{'G_Reuss': 72.0, 'G_VRH': 72.0, 'G_Voigt': 73.0, 'G_Voigt_Reuss_Hill': 72.0, 'K_Reuss': 177.0, 'K_VRH': 177.0, 'K_Voigt': 177.0, 'K_Voigt_Reuss_Hill': 177.0, 'elastic_anisotropy': 0.05, 'elastic_tensor': [[261.0, 134.0, 134.0, 0.0, 0.0, 0.0], [134.0, 261.0, 134.0, 0.0, 0.0, 0.0], [134.0, 134.0, 261.0, 0.0, 0.0, 0.0], [0.0, 0.0, 0.0, 79.0, 0.0, 0.0], [0.0, 0.0, 0.0, 0.0, 79.0, 0.0], [0.0, 0.0, 0.0, 0.0, 0.0, 79.0]], 'homogeneous_poisson': 0.32, 'poisson_ratio': 0.32, 'universal_anisotropy': 0.05, 'elastic_tensor_original': [[253.53424915096585, 127.75194348672584, 127.75194348672584, 0.0, 0.0, 0.0], [135.6314081400312, 264.03445753802777, 135.6319305027231, 1.2751801022581888e-05, 8.300700665642929e-06, -0.00016168321296556663], [139.35320544603016, 139.35160989127985, 266.81893875027504, 6.872661717147959e-05, 0.00033948355425459157, 0.00019784088896649142], [-0.0003936699521178979, -0.0003579921665565471, -0.0003600238623946951, 78.60598641568501, 0.0, 0.0], [-0.004817761160387939, -0.004611528134202674, -0.004601634176503871, 0.0, 78.6053596935251, 0.0], [0.000742120087712004, 0.0007394196740412015, 0.0007299353844189967, 0.0, 0.0, 78.60599253987598]], 'compliance_tensor': [[5.9, -2.0, -2.0, 0.0, 0.0, -0.0], [-2.0, 5.9, -2.0, -0.0, -0.0, -0.0], [-2.0, -2.0, 5.9, -0.0, 0.0, 0.0], [0.0, -0.0, -0.0, 12.7, -0.0, 0.0], [0.0, -0.0, 0.0, -0.0, 12.7, -0.0], [-0.0, -0.0, 0.0, 0.0, -0.0, 12.7]], 'warnings': [], 'nsites': 4}",0.0,72.0,177.0,0.05,0.32,190.08
200,mp-867223,LiGa2Ni,"{'Li': 1.0, 'Ga': 2.0, 'Ni': 1.0}",0.1616874870717212,6.5327356357832835,"{'G_Reuss': 5.0, 'G_VRH': 26.0, 'G_Voigt': 47.0, 'G_Voigt_Reuss_Hill': 26.0, 'K_Reuss': 87.0, 'K_VRH': 87.0, 'K_Voigt': 87.0, 'K_Voigt_Reuss_Hill': 87.0, 'elastic_anisotropy': 45.93, 'elastic_tensor': [[89.0, 86.0, 86.0, 0.0, 0.0, 0.0], [86.0, 89.0, 86.0, 0.0, 0.0, 0.0], [86.0, 86.0, 89.0, 0.0, 0.0, 0.0], [0.0, 0.0, 0.0, 77.0, 0.0, 0.0], [0.0, 0.0, 0.0, 0.0, 77.0, 0.0], [0.0, 0.0, 0.0, 0.0, 0.0, 77.0]], 'homogeneous_poisson': 0.36, 'poisson_ratio': 0.36, 'universal_anisotropy': 45.93, 'elastic_tensor_original': [[89.18813850454059, 85.35338002465464, 85.35338002465464, 0.0, 0.0, 0.0], [85.37233077352303, 89.2058476023241, 85.37233077352303, 0.0, 0.0, 0.0], [86.26173820958745, 86.26173820958745, 90.09789634300444, 0.0, 0.0, 0.0], [0.0002833798169113377, 2.9846799026710436e-05, 0.0004582898859753286, 77.17095848121745, 0.0, 0.0], [0.00026292001768792934, 0.00024840357220807266, 0.00034757642829164287, 0.0, 77.17160910067417, 0.0], [0.0003377499127949699, 9.348327139218948e-05, -5.635753413984396e-07, 0.0, 0.0, 77.17137927107908]], 'compliance_tensor': [[175.1, -85.6, -85.6, 0.0, 0.0, 0.0], [-85.6, 175.1, -85.6, -0.0, -0.0, -0.0], [-85.6, -85.6, 175.1, -0.0, -0.0, -0.0], [0.0, -0.0, -0.0, 13.0, 0.0, 0.0], [0.0, -0.0, -0.0, 0.0, 13.0, 0.0], [0.0, -0.0, -0.0, 0.0, 0.0, 13.0]], 'warnings': ['c11 and c12 are within 5% or c12 is greater than c11', 'c11 and c13 are within 5% or c13 is greater than c11', 'c11 and c23 are within 5% or c23 is greater than c11'], 'nsites': 4}",0.0,26.0,87.0,45.93,0.36,70.72
201,mp-8786,Zr2NiAs2,"{'Zr': 2.0, 'Ni': 1.0, 'As': 2.0}",0.10608709272931861,7.300473773901821,"{'G_Reuss': 66.0, 'G_VRH': 68.0, 'G_Voigt': 70.0, 'G_Voigt_Reuss_Hill': 68.0, 'K_Reuss': 136.0, 'K_VRH': 139.0, 'K_Voigt': 141.0, 'K_Voigt_Reuss_Hill': 139.0, 'elastic_anisotropy': 0.4, 'elastic_tensor': [[240.0, 112.0, 101.0, 0.0, 0.0, 0.0], [112.0, 240.0, 101.0, 0.0, 0.0, 0.0], [101.0, 101.0, 166.0, 0.0, 0.0, 0.0], [0.0, 0.0, 0.0, 89.0, 0.0, 0.0], [0.0, 0.0, 0.0, 0.0, 89.0, 0.0], [0.0, 0.0, 0.0, 0.0, 0.0, 64.0]], 'homogeneous_poisson': 0.29, 'poisson_ratio': 0.29, 'universal_anisotropy': 0.4, 'elastic_tensor_original': [[241.00506092603496, 111.26789771528966, 101.95378131626433, 0.0, 0.0, 0.0], [110.88429738487315, 240.96307253099192, 101.48142838820996, 0.0, 0.0, 0.0], [99.75811402965289, 99.75802564371142, 166.03458099980153, 0.0, 0.0, 0.0], [0.015249133058679613, 0.01552043360909299, 0.016563155840312867, 88.73278787805499, 0.0, 0.0], [-0.008421420562115797, -0.008062370464493726, -0.009047057361939058, 0.0, 88.64524229339939, 0.0], [0.0021625729200266085, 0.0020423196061181564, 0.0021624962493435565, 0.0, 0.0, 62.56073317689324]], 'compliance_tensor': [[6.1, -1.7, -2.6, 0.0, 0.0, -0.0], [-1.7, 6.1, -2.6, 0.0, 0.0, -0.0], [-2.6, -2.6, 9.2, -0.0, -0.0, 0.0], [0.0, 0.0, -0.0, 11.3, -0.0, -0.0], [0.0, 0.0, -0.0, -0.0, 11.3, -0.0], [-0.0, -0.0, 0.0, 0.0, -0.0, 15.7]], 'warnings': [], 'nsites': 10}",0.0,68.0,139.0,0.4,0.29,175.44
202,mp-983587,Ac2NiGe,"{'Ac': 2.0, 'Ni': 1.0, 'Ge': 1.0}",0.1844467389976485,8.801857855378726,"{'G_Reuss': 11.0, 'G_VRH': 14.0, 'G_Voigt': 17.0, 'G_Voigt_Reuss_Hill': 14.0, 'K_Reuss': 55.0, 'K_VRH': 55.0, 'K_Voigt': 55.0, 'K_Voigt_Reuss_Hill': 55.0, 'elastic_anisotropy': 2.4, 'elastic_tensor': [[95.0, 35.0, 35.0, 0.0, 0.0, 0.0], [35.0, 95.0, 35.0, 0.0, 0.0, 0.0], [35.0, 35.0, 95.0, 0.0, 0.0, 0.0], [0.0, 0.0, 0.0, 8.0, 0.0, 0.0], [0.0, 0.0, 0.0, 0.0, 8.0, 0.0], [0.0, 0.0, 0.0, 0.0, 0.0, 8.0]], 'homogeneous_poisson': 0.38, 'poisson_ratio': 0.38, 'universal_anisotropy': 2.4, 'elastic_tensor_original': [[94.88862227542593, 35.47065494491774, 35.47065494491774, 0.0, 0.0, 0.0], [35.47065494491774, 94.88862227542592, 35.47065494491777, 0.0, 0.0, 0.0], [35.47065494491777, 35.47065494491775, 94.88862227542592, 0.0, 0.0, 0.0], [0.0, 0.0, 0.0, 7.954604972612095, 0.0, 0.0], [0.0, 0.0, 0.0, 0.0, 7.9546049726120955, 0.0], [0.0, 0.0, 0.0, 0.0, 0.0, 7.954604972612095]], 'compliance_tensor': [[13.2, -3.6, -3.6, -0.0, 0.0, -0.0], [-3.6, 13.2, -3.6, 0.0, -0.0, 0.0], [-3.6, -3.6, 13.2, 0.0, 0.0, 0.0], [-0.0, 0.0, 0.0, 125.7, 0.0, 0.0], [0.0, -0.0, 0.0, 0.0, 125.7, 0.0], [-0.0, 0.0, -0.0, 0.0, 0.0, 125.7]], 'warnings': ['Contains a rare earth element'], 'nsites': 4}",0.0,14.0,55.0,2.4,0.38,38.64
203,mp-1017554,CdNi3N,"{'Cd': 1.0, 'Ni': 3.0, 'N': 1.0}",0.20268258696658328,8.803847636826779,"{'G_Reuss': 68.0, 'G_VRH': 68.0, 'G_Voigt': 69.0, 'G_Voigt_Reuss_Hill': 68.0, 'K_Reuss': 182.0, 'K_VRH': 182.0, 'K_Voigt': 182.0, 'K_Voigt_Reuss_Hill': 182.0, 'elastic_anisotropy': 0.03, 'elastic_tensor': [[282.0, 131.0, 131.0, 0.0, 0.0, 0.0], [131.0, 282.0, 131.0, 0.0, 0.0, 0.0], [131.0, 131.0, 282.0, 0.0, 0.0, 0.0], [0.0, 0.0, 0.0, 64.0, 0.0, 0.0], [0.0, 0.0, 0.0, 0.0, 64.0, 0.0], [0.0, 0.0, 0.0, 0.0, 0.0, 64.0]], 'homogeneous_poisson': 0.33, 'poisson_ratio': 0.33, 'universal_anisotropy': 0.03, 'elastic_tensor_original': [[282.32028336177746, 131.3966024450648, 131.3966024450648, 0.0, 0.0, 0.0], [131.46607882219254, 282.3846045375012, 131.46607882219254, 0.0, 0.0, 0.0], [131.4225318153229, 131.4225318153229, 282.34090802199637, 0.0, 0.0, 0.0], [0.09200210265927715, 0.05770176183032382, 0.09491158238723407, 64.10010171827996, 0.0, 0.0], [0.20243043248509746, 0.20659279399383806, 0.20178104995646745, 0.0, 64.03330031772575, 0.0], [0.017340328512169025, 0.047819807409201505, 0.04729245806268342, 0.0, 0.0, 64.10067911756445]], 'compliance_tensor': [[5.0, -1.6, -1.6, -0.0, 0.0, 0.0], [-1.6, 5.0, -1.6, 0.0, -0.0, 0.0], [-1.6, -1.6, 5.0, -0.0, 0.0, -0.0], [-0.0, 0.0, -0.0, 15.6, -0.0, 0.0], [0.0, -0.0, 0.0, -0.0, 15.6, -0.0], [0.0, 0.0, -0.0, 0.0, -0.0, 15.6]], 'warnings': [], 'nsites': 5}",0.0,68.0,182.0,0.03,0.33,180.88
204,mp-10181,LiSiNi2,"{'Li': 1.0, 'Si': 1.0, 'Ni': 2.0}",0.16732483308418541,5.957779519361367,"{'G_Reuss': 17.0, 'G_VRH': 43.0, 'G_Voigt': 69.0, 'G_Voigt_Reuss_Hill': 43.0, 'K_Reuss': 149.0, 'K_VRH': 149.0, 'K_Voigt': 149.0, 'K_Voigt_Reuss_Hill': 149.0, 'elastic_anisotropy': 14.89, 'elastic_tensor': [[159.0, 144.0, 144.0, 0.0, 0.0, 0.0], [144.0, 159.0, 144.0, 0.0, 0.0, 0.0], [144.0, 144.0, 159.0, 0.0, 0.0, 0.0], [0.0, 0.0, 0.0, 110.0, 0.0, 0.0], [0.0, 0.0, 0.0, 0.0, 110.0, 0.0], [0.0, 0.0, 0.0, 0.0, 0.0, 110.0]], 'homogeneous_poisson': 0.37, 'poisson_ratio': 0.37, 'universal_anisotropy': 14.89, 'elastic_tensor_original': [[159.78467016156682, 146.4388802418527, 146.4388802418527, 0.0, 0.0, 0.0], [146.43641164308008, 159.79025210598664, 146.43641164308008, 0.0, 0.0, 0.0], [138.3092639531573, 138.3092639531573, 157.72193064805498, 0.0, 0.0, 0.0], [0.010577057142571967, 0.011401140253275446, 0.010959793705839256, 110.20043422896504, 0.0, 0.0], [0.02258553389844102, 0.021066560975462088, 0.022673367208043284, 0.0, 110.20362153477065, 0.0], [-0.024389143411186982, -0.02477060664146714, -0.022775173847204785, 0.0, 0.0, 110.20474580780024]], 'compliance_tensor': [[44.1, -20.9, -20.9, 0.0, -0.0, 0.0], [-20.9, 44.1, -20.9, 0.0, 0.0, -0.0], [-20.9, -20.9, 44.1, -0.0, 0.0, 0.0], [0.0, 0.0, -0.0, 9.1, -0.0, -0.0], [-0.0, 0.0, 0.0, -0.0, 9.1, -0.0], [0.0, -0.0, 0.0, -0.0, -0.0, 9.1]], 'warnings': [], 'nsites': 4}",0.0,43.0,149.0,14.89,0.37,117.82000000000001
205,mp-1025552,LuGa2Ni,"{'Lu': 1.0, 'Ga': 2.0, 'Ni': 1.0}",0.14345553709012288,9.281117358795893,"{'G_Reuss': 53.0, 'G_VRH': 57.0, 'G_Voigt': 61.0, 'G_Voigt_Reuss_Hill': 57.0, 'K_Reuss': 86.0, 'K_VRH': 89.0, 'K_Voigt': 92.0, 'K_Voigt_Reuss_Hill': 89.0, 'elastic_anisotropy': 0.76, 'elastic_tensor': [[136.0, 33.0, 88.0, 0.0, 0.0, 0.0], [33.0, 147.0, 60.0, 0.0, 0.0, 0.0], [88.0, 60.0, 184.0, 0.0, 0.0, 0.0], [0.0, 0.0, 0.0, 45.0, 0.0, 0.0], [0.0, 0.0, 0.0, 0.0, 96.0, 0.0], [0.0, 0.0, 0.0, 0.0, 0.0, 67.0]], 'homogeneous_poisson': 0.24, 'poisson_ratio': 0.24, 'universal_anisotropy': 0.76, 'elastic_tensor_original': [[136.40431751790734, 39.82598582200186, 100.94847883531855, -7.999938015222798e-06, 0.0, 0.0], [26.851531319832098, 147.41713900350578, 70.03621031448465, -2.9799995027882033e-05, 0.0, 0.0], [75.42564304960352, 49.130367395108706, 184.30084698479936, 0.0, 0.0, 0.0], [0.0, 0.0, -9.192679406450188e-06, 45.27854940062426, 0.0, 0.0], [0.0, 0.0, 0.0, 0.0, 95.63159119604656, -5.999971741440677e-07], [0.0, 0.0, 0.0, 0.0, -1.3600005776564293e-05, 66.81885377944036]], 'compliance_tensor': [[10.6, -0.4, -5.0, 0.0, 0.0, 0.0], [-0.4, 7.8, -2.3, -0.0, 0.0, 0.0], [-5.0, -2.3, 8.6, -0.0, 0.0, 0.0], [0.0, -0.0, -0.0, 22.1, 0.0, 0.0], [0.0, 0.0, 0.0, 0.0, 10.5, -0.0], [0.0, 0.0, 0.0, 0.0, -0.0, 15.0]], 'warnings': ['Contains a rare earth element'], 'nsites': 8}",0.0,57.0,89.0,0.76,0.24,141.35999999999999
206,mp-10797,CaSiNi2,"{'Ca': 1.0, 'Si': 1.0, 'Ni': 2.0}",0.15103327695614874,4.535499724041246,"{'G_Reuss': 34.0, 'G_VRH': 39.0, 'G_Voigt': 43.0, 'G_Voigt_Reuss_Hill': 39.0, 'K_Reuss': 79.0, 'K_VRH': 83.0, 'K_Voigt': 87.0, 'K_Voigt_Reuss_Hill': 83.0, 'elastic_anisotropy': 1.51, 'elastic_tensor': [[190.0, 78.0, 32.0, 0.0, 0.0, 0.0], [78.0, 190.0, 32.0, 0.0, 0.0, 0.0], [32.0, 32.0, 119.0, 0.0, 0.0, 0.0], [0.0, 0.0, 0.0, 21.0, 0.0, 0.0], [0.0, 0.0, 0.0, 0.0, 21.0, 0.0], [0.0, 0.0, 0.0, 0.0, 0.0, 56.0]], 'homogeneous_poisson': 0.3, 'poisson_ratio': 0.3, 'universal_anisotropy': 1.51, 'elastic_tensor_original': [[190.7668844522889, 77.8466496290464, 30.266100027118885, 0.0, 0.0, 0.0], [77.97619062489392, 190.29396963269613, 29.257572464969755, 0.0, 0.0, 0.0], [35.17474965672382, 35.17475373640732, 119.20175587714586, 0.0, 0.0, 0.0], [0.0008095072453812896, 0.0005093569384315494, 0.0007494071268600793, 21.221098130513013, 0.0, 0.0], [0.0013474812722000607, 0.0011992707656339695, 0.001301061113541768, 0.0, 21.142105111242078, 0.0], [-0.00043915290623747666, -0.00036778950959661576, -0.00033175962141042935, 0.0, 0.0, 55.432518283054186]], 'compliance_tensor': [[6.5, -2.5, -1.1, -0.0, 0.0, -0.0], [-2.5, 6.5, -1.1, -0.0, 0.0, -0.0], [-1.1, -1.1, 9.0, 0.0, -0.0, 0.0], [-0.0, -0.0, -0.0, 47.2, -0.0, -0.0], [0.0, 0.0, 0.0, -0.0, 47.2, 0.0], [-0.0, -0.0, 0.0, 0.0, -0.0, 17.9]], 'warnings': [], 'nsites': 8}",0.0,39.0,83.0,1.51,0.3,101.4
207,mp-10846,NiAsSe,"{'Ni': 1.0, 'As': 1.0, 'Se': 1.0}",0.14353308041909185,6.97849925456157,"{'G_Reuss': 53.0, 'G_VRH': 54.0, 'G_Voigt': 55.0, 'G_Voigt_Reuss_Hill': 54.0, 'K_Reuss': 101.0, 'K_VRH': 101.0, 'K_Voigt': 101.0, 'K_Voigt_Reuss_Hill': 101.0, 'elastic_anisotropy': 0.18, 'elastic_tensor': [[192.0, 56.0, 56.0, 0.0, 0.0, 0.0], [56.0, 192.0, 56.0, 0.0, 0.0, 0.0], [56.0, 56.0, 192.0, 0.0, 0.0, 0.0], [0.0, 0.0, 0.0, 47.0, 0.0, 0.0], [0.0, 0.0, 0.0, 0.0, 47.0, 0.0], [0.0, 0.0, 0.0, 0.0, 0.0, 47.0]], 'homogeneous_poisson': 0.27, 'poisson_ratio': 0.27, 'universal_anisotropy': 0.18, 'elastic_tensor_original': [[193.35036576833645, 56.96075906447582, 57.16719987863694, -0.013531762570292075, -0.006386546017272261, -0.0007126672453181017], [56.571324373262144, 192.72314972083578, 56.382572918989624, 0.004699447446140166, -0.00505383351080311, -0.002619405883122942], [52.9778375287646, 53.324432528438024, 189.5291389939429, -0.006170470772017561, -0.00659886372321645, 0.008423954768535932], [-0.00011202996748607863, -0.00024921326100531103, 8.81933077372511e-05, 46.64286191300653, 0.0, 0.0], [0.00023062993306453654, 0.00024348992933259504, 0.0002139999378914333, 0.0, 46.2998140525681, 0.0], [-0.07648977446730905, -0.07660880443276318, -0.07639045782946663, 0.0, 0.0, 46.65392038646373]], 'compliance_tensor': [[6.0, -1.3, -1.3, 0.0, 0.0, 0.0], [-1.3, 6.0, -1.3, 0.0, 0.0, 0.0], [-1.3, -1.3, 6.0, 0.0, 0.0, 0.0], [0.0, 0.0, 0.0, 21.5, 0.0, 0.0], [0.0, 0.0, 0.0, 0.0, 21.5, 0.0], [0.0, 0.0, 0.0, 0.0, 0.0, 21.5]], 'warnings': [], 'nsites': 12}",0.0,54.0,101.0,0.18,0.27,137.16
208,mp-11621,ZnNiSb,"{'Zn': 1.0, 'Ni': 1.0, 'Sb': 1.0}",0.13214302464634536,7.765793122142992,"{'G_Reuss': 35.0, 'G_VRH': 35.0, 'G_Voigt': 36.0, 'G_Voigt_Reuss_Hill': 35.0, 'K_Reuss': 102.0, 'K_VRH': 102.0, 'K_Voigt': 102.0, 'K_Voigt_Reuss_Hill': 102.0, 'elastic_anisotropy': 0.16, 'elastic_tensor': [[140.0, 83.0, 83.0, 0.0, 0.0, 0.0], [83.0, 140.0, 83.0, 0.0, 0.0, 0.0], [83.0, 83.0, 140.0, 0.0, 0.0, 0.0], [0.0, 0.0, 0.0, 41.0, 0.0, 0.0], [0.0, 0.0, 0.0, 0.0, 41.0, 0.0], [0.0, 0.0, 0.0, 0.0, 0.0, 41.0]], 'homogeneous_poisson': 0.35, 'poisson_ratio': 0.35, 'universal_anisotropy': 0.16, 'elastic_tensor_original': [[144.71225987783484, 88.02722932025111, 88.03012740632936, -0.0002742087658578184, 0.0003978184291489604, -6.777716018565883e-05], [84.34064611651151, 141.04912658399735, 84.34118788978057, 4.502200431470317e-05, 0.000617986286256939, 0.0004424953221545011], [77.15688033058521, 77.15559425096423, 133.86583698071638, -0.00018618157672494414, 0.00024738143557927655, 4.2681427158078305e-05], [0.010010689267195554, 0.027513818835671677, 0.030705954645497285, 40.6615123553952, -6.469668572405635e-05, -0.00010180332678806151], [-0.0774867922995151, -0.08569526195697563, -0.0760280338269753, -8.840656118839695e-05, 40.636793344495715, -3.674322825089827e-05], [0.0763355703844997, 0.09581871899552748, 0.09935760158598435, 2.4076512652784218e-05, -0.00012735993482202728, 40.69532457613279]], 'compliance_tensor': [[12.8, -4.8, -4.8, 0.0, 0.0, -0.0], [-4.8, 12.8, -4.8, -0.0, -0.0, -0.0], [-4.8, -4.8, 12.8, -0.0, 0.0, 0.0], [0.0, -0.0, -0.0, 24.6, -0.0, 0.0], [0.0, -0.0, 0.0, -0.0, 24.6, -0.0], [-0.0, -0.0, 0.0, 0.0, -0.0, 24.6]], 'warnings': [], 'nsites': 3}",0.0,35.0,102.0,0.16,0.35,94.5
209,mp-11879,BaNiSn3,"{'Ba': 1.0, 'Ni': 1.0, 'Sn': 3.0}",0.17325806940248076,6.986003210258319,"{'G_Reuss': 31.0, 'G_VRH': 32.0, 'G_Voigt': 32.0, 'G_Voigt_Reuss_Hill': 32.0, 'K_Reuss': 56.0, 'K_VRH': 56.0, 'K_Voigt': 56.0, 'K_Voigt_Reuss_Hill': 56.0, 'elastic_anisotropy': 0.03, 'elastic_tensor': [[97.0, 37.0, 35.0, 0.0, 0.0, 0.0], [37.0, 97.0, 35.0, 0.0, 0.0, 0.0], [35.0, 35.0, 95.0, 0.0, 0.0, 0.0], [0.0, 0.0, 0.0, 30.0, 0.0, 0.0], [0.0, 0.0, 0.0, 0.0, 30.0, 0.0], [0.0, 0.0, 0.0, 0.0, 0.0, 36.0]], 'homogeneous_poisson': 0.26, 'poisson_ratio': 0.26, 'universal_anisotropy': 0.03, 'elastic_tensor_original': [[95.98955332202955, 36.00553384127053, 34.22038985898554, 0.0, 0.0, 0.0], [37.299837929739354, 97.4719362448085, 35.658993783471196, 0.0, 0.0, 0.0], [34.277566859240146, 34.277566859240146, 94.81848669759137, 0.0, 0.0, 0.0], [0.0005642120174592696, 0.0005563052999929443, 0.0006280418543516883, 30.43756924559705, 0.0, 0.0], [-0.00025250927286982015, -0.00025693592426960147, -0.0002633725180431179, 0.0, 30.43758546555097, 0.0], [-3.129983551984311e-05, 4.290079096569651e-06, 0.00017362945359547345, 0.0, 0.0, 36.27738874731101]], 'compliance_tensor': [[12.9, -3.7, -3.4, 0.0, 0.0, -0.0], [-3.7, 12.9, -3.4, 0.0, 0.0, 0.0], [-3.4, -3.4, 13.0, 0.0, 0.0, -0.0], [0.0, 0.0, 0.0, 32.9, 0.0, 0.0], [0.0, 0.0, 0.0, 0.0, 32.9, 0.0], [-0.0, 0.0, -0.0, 0.0, 0.0, 27.6]], 'warnings': [], 'nsites': 5}",0.0,32.0,56.0,0.03,0.26,80.64
210,mp-12100,Lu(SiNi)2,"{'Lu': 1.0, 'Si': 2.0, 'Ni': 2.0}",0.12263953161580138,7.961147779289064,"{'G_Reuss': 67.0, 'G_VRH': 68.0, 'G_Voigt': 70.0, 'G_Voigt_Reuss_Hill': 68.0, 'K_Reuss': 121.0, 'K_VRH': 122.0, 'K_Voigt': 122.0, 'K_Voigt_Reuss_Hill': 122.0, 'elastic_anisotropy': 0.21, 'elastic_tensor': [[209.0, 51.0, 90.0, 0.0, 0.0, 0.0], [51.0, 209.0, 90.0, 0.0, 0.0, 0.0], [90.0, 90.0, 220.0, 0.0, 0.0, 0.0], [0.0, 0.0, 0.0, 80.0, 0.0, 0.0], [0.0, 0.0, 0.0, 0.0, 80.0, 0.0], [0.0, 0.0, 0.0, 0.0, 0.0, 53.0]], 'homogeneous_poisson': 0.26, 'poisson_ratio': 0.26, 'universal_anisotropy': 0.21, 'elastic_tensor_original': [[209.25104472949536, 51.25052345722389, 84.6349647008165, -9.000206951230596e-06, 0.0, 0.0], [51.25052345722389, 209.25104472949536, 84.6349647008165, 0.0, 9.000206953708328e-06, 0.0], [95.43617191284959, 95.43617191284959, 219.6803529144614, -2.3000134360695655e-05, -2.3000134360695655e-05, 0.0], [0.0, 0.0, 0.0, 80.18728952896437, 2.000007979845289e-07, 0.0], [0.0, 0.0, 0.0, -2.0000079806003455e-07, 80.18728952896437, 0.0], [0.526903371661892, -0.526903371661893, 0.0, -1.400010420598199e-06, 0.0, 52.68803194903198]], 'compliance_tensor': [[5.8, -0.5, -2.2, -0.0, 0.0, 0.0], [-0.5, 5.8, -2.2, 0.0, -0.0, -0.0], [-2.2, -2.2, 6.4, 0.0, 0.0, 0.0], [-0.0, 0.0, 0.0, 12.5, 0.0, 0.0], [0.0, -0.0, 0.0, 0.0, 12.5, 0.0], [0.0, -0.0, 0.0, 0.0, 0.0, 19.0]], 'warnings': ['Contains a rare earth element'], 'nsites': 5}",0.0,68.0,122.0,0.21,0.26,171.36