,mp_id,Formula,Composition,IPF,Density,Elastic_Tensor,E_above_Hull,G_VRH,K_VRH,Elastic_Anisotropy,poisson_ratio,Y_Modulus
237,mp-8308,Ca3Ni7B2,"{'Ca': 3.0, 'Ni': 7.0, 'B': 2.0}",0.19197247887102745,5.669552606766934,"{'G_Reuss': 53.0, 'G_VRH': 54.0, 'G_Voigt': 55.0, 'G_Voigt_Reuss_Hill': 54.0, 'K_Reuss': 103.0, 'K_VRH': 103.0, 'K_Voigt': 103.0, 'K_Voigt_Reuss_Hill': 103.0, 'elastic_anisotropy': 0.22, 'elastic_tensor': [[182.0, 65.0, 59.0, 7.0, 0.0, 0.0], [65.0, 182.0, 59.0, -7.0, 0.0, 0.0], [59.0, 59.0, 202.0, 0.0, 0.0, 0.0], [7.0, -7.0, 0.0, 44.0, 0.0, 0.0], [0.0, 0.0, 0.0, 0.0, 44.0, 7.0], [0.0, 0.0, 0.0, 0.0, 7.0, 58.0]], 'homogeneous_poisson': 0.28, 'poisson_ratio': 0.28, 'universal_anisotropy': 0.22, 'elastic_tensor_original': [[181.24144687890293, 66.1590475457402, 58.28353575122891, -6.598873745321574, 0.0, 0.0], [64.86280347050389, 181.62732890935453, 58.94738023335113, 6.575871091244725, 0.0, 0.0], [59.40414821881889, 59.40412228073235, 201.55906100739418, 0.0, 0.0, 0.0], [-6.419035490652637, 6.736658565882444, -0.1103429046412327, 44.396054391888015, 0.0, 0.0], [0.0063808429097615615, 0.005954777073370143, 0.008200406538893396, 2.601182310744692e-07, 44.40791619256705, -6.570686010345585], [-0.1243470152957555, -0.12767205920314262, -0.1295752565702754, -0.0006442679952619844, -6.266323074694643, 58.64489200871436]], 'compliance_tensor': [[6.7, -2.0, -1.4, -1.3, 0.0, 0.0], [-2.0, 6.7, -1.4, 1.3, -0.0, 0.0], [-1.4, -1.4, 5.8, -0.0, -0.0, -0.0], [-1.3, 1.3, -0.0, 22.9, 0.0, -0.0], [-0.0, -0.0, -0.0, 0.0, 22.9, -2.6], [0.0, 0.0, -0.0, -0.0, -2.6, 17.4]], 'warnings': [], 'nsites': 12}",0.0,54.0,103.0,0.22,0.28,138.24
238,mp-862367,Sc2NiRu,"{'Sc': 2.0, 'Ni': 1.0, 'Ru': 1.0}",0.1335961671890606,6.356180596552928,"{'G_Reuss': 57.0, 'G_VRH': 57.0, 'G_Voigt': 57.0, 'G_Voigt_Reuss_Hill': 57.0, 'K_Reuss': 124.0, 'K_VRH': 124.0, 'K_Voigt': 124.0, 'K_Voigt_Reuss_Hill': 124.0, 'elastic_anisotropy': 0.0, 'elastic_tensor': [[201.0, 86.0, 86.0, 0.0, 0.0, 0.0], [86.0, 201.0, 86.0, 0.0, 0.0, 0.0], [86.0, 86.0, 201.0, 0.0, 0.0, 0.0], [0.0, 0.0, 0.0, 57.0, 0.0, 0.0], [0.0, 0.0, 0.0, 0.0, 57.0, 0.0], [0.0, 0.0, 0.0, 0.0, 0.0, 57.0]], 'homogeneous_poisson': 0.3, 'poisson_ratio': 0.3, 'universal_anisotropy': 0.0, 'elastic_tensor_original': [[203.51290567267947, 84.38206844859668, 84.38206844859668, 0.0, 0.0, 0.0], [87.57973831825858, 199.58075785320818, 87.57973831825858, 0.0, 0.0, 0.0], [86.6731183793811, 86.6731183793811, 198.67616170947005, 0.0, 0.0, 0.0], [-0.0466965372162615, -0.03930360207560493, -0.042522431415268014, 56.87986831672368, 0.0, 0.0], [0.001979544727573929, 0.0020760678184822416, 0.0018746680044713384, 0.0, 56.86725226813911, 0.0], [0.0006914387290008061, 0.0007247620722207513, 0.0007570719591781255, 0.0, 0.0, 56.86732174816056]], 'compliance_tensor': [[6.7, -2.0, -2.0, 0.0, -0.0, 0.0], [-2.0, 6.7, -2.0, 0.0, -0.0, -0.0], [-2.0, -2.0, 6.7, 0.0, 0.0, -0.0], [0.0, 0.0, 0.0, 17.6, 0.0, 0.0], [-0.0, -0.0, 0.0, 0.0, 17.6, -0.0], [0.0, -0.0, -0.0, 0.0, -0.0, 17.6]], 'warnings': [], 'nsites': 4}",0.0,57.0,124.0,0.0,0.3,148.20000000000002
239,mp-862424,Sc2TcNi,"{'Sc': 2.0, 'Tc': 1.0, 'Ni': 1.0}",0.13985689145503752,6.216165592538895,"{'G_Reuss': 54.0, 'G_VRH': 54.0, 'G_Voigt': 54.0, 'G_Voigt_Reuss_Hill': 54.0, 'K_Reuss': 118.0, 'K_VRH': 118.0, 'K_Voigt': 118.0, 'K_Voigt_Reuss_Hill': 118.0, 'elastic_anisotropy': 0.02, 'elastic_tensor': [[196.0, 79.0, 79.0, 0.0, 0.0, 0.0], [79.0, 196.0, 79.0, 0.0, 0.0, 0.0], [79.0, 79.0, 196.0, 0.0, 0.0, 0.0], [0.0, 0.0, 0.0, 51.0, 0.0, 0.0], [0.0, 0.0, 0.0, 0.0, 51.0, 0.0], [0.0, 0.0, 0.0, 0.0, 0.0, 51.0]], 'homogeneous_poisson': 0.3, 'poisson_ratio': 0.3, 'universal_anisotropy': 0.02, 'elastic_tensor_original': [[202.93674139098874, 84.8355950400702, 84.8355950400702, 0.0, 0.0, 0.0], [79.02422949313566, 196.8061274944337, 79.02420485973109, 0.0, 0.0, 0.0], [72.15904702662124, 72.15902449144585, 187.9403656439434, 0.0, 0.0, 0.0], [-0.005132609613628846, -0.005119450027302511, -0.005049358590720975, 50.75090207197854, 0.0, 0.0], [0.015329143500809808, 0.015294829056072743, 0.015286664111848038, 0.0, 50.75059690954759, 0.0], [-0.00035236183084473365, -0.0003666044627218555, -0.00032728987248432467, 0.0, 0.0, 50.75198071069335]], 'compliance_tensor': [[6.6, -1.9, -1.9, 0.0, -0.0, -0.0], [-1.9, 6.6, -1.9, -0.0, 0.0, -0.0], [-1.9, -1.9, 6.6, -0.0, -0.0, 0.0], [0.0, -0.0, -0.0, 19.7, -0.0, -0.0], [-0.0, 0.0, -0.0, -0.0, 19.7, -0.0], [-0.0, -0.0, 0.0, -0.0, -0.0, 19.7]], 'warnings': [], 'nsites': 4}",0.0,54.0,118.0,0.02,0.3,140.4
240,mp-864654,Zn2NiRh,"{'Zn': 2.0, 'Ni': 1.0, 'Rh': 1.0}",0.17581756163201817,9.341955839924998,"{'G_Reuss': 48.0, 'G_VRH': 57.0, 'G_Voigt': 67.0, 'G_Voigt_Reuss_Hill': 57.0, 'K_Reuss': 156.0, 'K_VRH': 156.0, 'K_Voigt': 156.0, 'K_Voigt_Reuss_Hill': 156.0, 'elastic_anisotropy': 2.05, 'elastic_tensor': [[193.0, 138.0, 138.0, 0.0, 0.0, 0.0], [138.0, 193.0, 138.0, 0.0, 0.0, 0.0], [138.0, 138.0, 193.0, 0.0, 0.0, 0.0], [0.0, 0.0, 0.0, 94.0, 0.0, 0.0], [0.0, 0.0, 0.0, 0.0, 94.0, 0.0], [0.0, 0.0, 0.0, 0.0, 0.0, 94.0]], 'homogeneous_poisson': 0.34, 'poisson_ratio': 0.34, 'universal_anisotropy': 2.05, 'elastic_tensor_original': [[192.92067435841943, 136.27626680791178, 136.27626680791178, 0.0, 0.0, 0.0], [137.95550118542678, 190.89995868181495, 137.95550118542678, 0.0, 0.0, 0.0], [140.14117567868345, 140.14117567868345, 194.92772818622103, 0.0, 0.0, 0.0], [-0.021250098139061906, -0.0247094811694464, -0.020807844844460126, 93.52603948963915, 0.0, 0.0], [0.07806484983028984, 0.0712537504267598, 0.07393023019237076, 0.0, 93.51914470024293, 0.0], [0.0237223245892307, 0.01702220517598025, 0.015840245279488945, 0.0, 0.0, 93.52089959342261]], 'compliance_tensor': [[12.9, -5.4, -5.4, 0.0, -0.0, 0.0], [-5.4, 12.9, -5.4, 0.0, 0.0, -0.0], [-5.4, -5.4, 12.9, -0.0, 0.0, 0.0], [0.0, 0.0, -0.0, 10.7, -0.0, -0.0], [-0.0, 0.0, 0.0, -0.0, 10.7, -0.0], [0.0, -0.0, 0.0, -0.0, -0.0, 10.7]], 'warnings': [], 'nsites': 4}",0.0,57.0,156.0,2.05,0.34,152.76000000000002
241,mp-866037,GaNiRh2,"{'Ga': 1.0, 'Ni': 1.0, 'Rh': 2.0}",0.12996830276787202,10.304213907270523,"{'G_Reuss': 36.0, 'G_VRH': 57.0, 'G_Voigt': 78.0, 'G_Voigt_Reuss_Hill': 57.0, 'K_Reuss': 200.0, 'K_VRH': 200.0, 'K_Voigt': 200.0, 'K_Voigt_Reuss_Hill': 200.0, 'elastic_anisotropy': 5.95, 'elastic_tensor': [[223.0, 188.0, 188.0, 0.0, 0.0, 0.0], [188.0, 223.0, 188.0, 0.0, 0.0, 0.0], [188.0, 188.0, 223.0, 0.0, 0.0, 0.0], [0.0, 0.0, 0.0, 118.0, 0.0, 0.0], [0.0, 0.0, 0.0, 0.0, 118.0, 0.0], [0.0, 0.0, 0.0, 0.0, 0.0, 118.0]], 'homogeneous_poisson': 0.37, 'poisson_ratio': 0.37, 'universal_anisotropy': 5.95, 'elastic_tensor_original': [[221.86541831324516, 187.70033845836372, 187.70033845836372, 0.0, 0.0, 0.0], [188.0774762961846, 223.8183397758461, 188.0774762961846, 0.0, 0.0, 0.0], [189.1211754740979, 189.1211754740979, 223.28381680610647, 0.0, 0.0, 0.0], [0.001117630115882428, 0.0005176736716739131, 0.00026930788739632985, 118.18713196124712, 0.0, 0.0], [-0.0001351995491613607, -0.00019609951835212767, -0.00014340624209391572, 0.0, 118.18696827133633, 0.0], [0.0013968324359051227, 0.001133613323974721, 0.0019598522971344223, 0.0, 0.0, 118.18703372455045]], 'compliance_tensor': [[19.8, -9.1, -9.1, 0.0, 0.0, -0.0], [-9.1, 19.8, -9.1, -0.0, 0.0, 0.0], [-9.1, -9.1, 19.8, 0.0, -0.0, 0.0], [0.0, -0.0, 0.0, 8.5, -0.0, -0.0], [0.0, 0.0, -0.0, -0.0, 8.5, -0.0], [-0.0, 0.0, 0.0, -0.0, -0.0, 8.5]], 'warnings': [], 'nsites': 4}",0.0,57.0,200.0,5.95,0.37,156.18
242,mp-924130,TiNiSn,"{'Ti': 1.0, 'Ni': 1.0, 'Sn': 1.0}",0.12911409052544734,7.230096922996658,"{'G_Reuss': 68.0, 'G_VRH': 68.0, 'G_Voigt': 68.0, 'G_Voigt_Reuss_Hill': 68.0, 'K_Reuss': 122.0, 'K_VRH': 122.0, 'K_Voigt': 122.0, 'K_Voigt_Reuss_Hill': 122.0, 'elastic_anisotropy': 0.01, 'elastic_tensor': [[217.0, 75.0, 75.0, 0.0, 0.0, 0.0], [75.0, 217.0, 75.0, 0.0, 0.0, 0.0], [75.0, 75.0, 217.0, 0.0, 0.0, 0.0], [0.0, 0.0, 0.0, 65.0, 0.0, 0.0], [0.0, 0.0, 0.0, 0.0, 65.0, 0.0], [0.0, 0.0, 0.0, 0.0, 0.0, 65.0]], 'homogeneous_poisson': 0.27, 'poisson_ratio': 0.27, 'universal_anisotropy': 0.01, 'elastic_tensor_original': [[216.80584016753932, 74.92254234834071, 74.92254234834071, 0.0, 0.0, 0.0], [74.86713577972482, 216.7495655722119, 74.86713577972482, 0.0, 0.0, 0.0], [74.88429948190098, 74.88429948190098, 216.7681623119781, 0.0, 0.0, 0.0], [-0.00017870684617067017, -0.00018581351997668826, -0.00018847352264904788, 65.48636642889618, 0.0, 0.0], [-4.5086711954437857e-05, -5.34167203216686e-05, -4.759671447604277e-05, 0.0, 65.48626697879627, 0.0], [-0.0002983702997028556, -0.000303153637841395, -0.0003018069698204083, 0.0, 0.0, 65.48633368219663]], 'compliance_tensor': [[5.6, -1.4, -1.4, -0.0, 0.0, -0.0], [-1.4, 5.6, -1.4, -0.0, -0.0, 0.0], [-1.4, -1.4, 5.6, 0.0, -0.0, -0.0], [-0.0, -0.0, 0.0, 15.3, -0.0, -0.0], [0.0, -0.0, -0.0, -0.0, 15.3, -0.0], [-0.0, 0.0, -0.0, -0.0, -0.0, 15.3]], 'warnings': [], 'nsites': 3}",0.0,68.0,122.0,0.01,0.27,172.72
243,mp-10208,NiMoP2,"{'Ni': 1.0, 'Mo': 1.0, 'P': 2.0}",0.09285816112221067,6.624752975525021,"{'G_Reuss': 101.0, 'G_VRH': 104.0, 'G_Voigt': 107.0, 'G_Voigt_Reuss_Hill': 104.0, 'K_Reuss': 189.0, 'K_VRH': 189.0, 'K_Voigt': 190.0, 'K_Voigt_Reuss_Hill': 189.0, 'elastic_anisotropy': 0.31, 'elastic_tensor': [[290.0, 127.0, 131.0, 0.0, 0.0, 0.0], [127.0, 290.0, 131.0, 0.0, 0.0, 0.0], [131.0, 131.0, 351.0, 0.0, 0.0, 0.0], [0.0, 0.0, 0.0, 138.0, 0.0, 0.0], [0.0, 0.0, 0.0, 0.0, 138.0, 0.0], [0.0, 0.0, 0.0, 0.0, 0.0, 81.0]], 'homogeneous_poisson': 0.27, 'poisson_ratio': 0.27, 'universal_anisotropy': 0.31, 'elastic_tensor_original': [[288.9751883035263, 126.55000691298696, 129.68022570426962, 0.0, 0.0, 0.0], [127.02312125783946, 292.19105876605056, 129.99519215574048, 0.0, 0.0, 0.0], [133.00382529013098, 133.00373311406605, 351.34335071202617, 0.0, 0.0, 0.0], [0.00014209378955508842, 0.0002448600667082988, -0.00018024272728518788, 137.8098245693603, 0.0, 0.0], [3.819051682702054e-05, 0.0002471657238138777, 0.0002087727452774286, 0.0, 137.99135765890708, 0.0], [-3.069001523431503e-05, 0.00012905668875367476, 9.714002842955534e-05, 0.0, 0.0, 80.49843335947637]], 'compliance_tensor': [[4.6, -1.5, -1.2, 0.0, -0.0, -0.0], [-1.5, 4.6, -1.2, -0.0, -0.0, -0.0], [-1.2, -1.2, 3.7, 0.0, 0.0, 0.0], [0.0, 0.0, 0.0, 7.3, -0.0, -0.0], [-0.0, -0.0, 0.0, -0.0, 7.3, 0.0], [-0.0, -0.0, 0.0, 0.0, -0.0, 12.3]], 'warnings': [], 'nsites': 8}",0.0,104.0,189.0,0.31,0.27,264.16
244,mp-1024983,ErInNi4,"{'Er': 1.0, 'In': 1.0, 'Ni': 4.0}",0.17183171904915986,9.93367076414755,"{'G_Reuss': 55.0, 'G_VRH': 56.0, 'G_Voigt': 57.0, 'G_Voigt_Reuss_Hill': 56.0, 'K_Reuss': 147.0, 'K_VRH': 147.0, 'K_Voigt': 147.0, 'K_Voigt_Reuss_Hill': 147.0, 'elastic_anisotropy': 0.25, 'elastic_tensor': [[204.0, 118.0, 118.0, 0.0, 0.0, 0.0], [118.0, 204.0, 118.0, 0.0, 0.0, 0.0], [118.0, 118.0, 204.0, 0.0, 0.0, 0.0], [0.0, 0.0, 0.0, 67.0, 0.0, 0.0], [0.0, 0.0, 0.0, 0.0, 67.0, 0.0], [0.0, 0.0, 0.0, 0.0, 0.0, 67.0]], 'homogeneous_poisson': 0.33, 'poisson_ratio': 0.33, 'universal_anisotropy': 0.25, 'elastic_tensor_original': [[203.7126225579668, 118.2847717887887, 118.2847717887887, 0.0, 0.0, 0.0], [118.2847717887887, 203.7126225579668, 118.2847717887887, 0.0, 0.0, 0.0], [118.2847717887887, 118.2847717887887, 203.7126225579668, 0.0, 0.0, 0.0], [0.0, 0.0, 0.0, 67.15171039298862, 0.0, 0.0], [0.0, 0.0, 0.0, 0.0, 67.15171039298862, 0.0], [0.0, 0.0, 0.0, 0.0, 0.0, 67.15171039298862]], 'compliance_tensor': [[8.6, -3.1, -3.1, 0.0, -0.0, -0.0], [-3.1, 8.6, -3.1, -0.0, 0.0, 0.0], [-3.1, -3.1, 8.6, -0.0, -0.0, 0.0], [0.0, -0.0, -0.0, 14.9, 0.0, -0.0], [-0.0, 0.0, -0.0, 0.0, 14.9, -0.0], [-0.0, 0.0, 0.0, -0.0, -0.0, 14.9]], 'warnings': ['Contains a rare earth element'], 'nsites': 6}",0.0,56.0,147.0,0.25,0.33,148.96
245,mp-1025413,ThSi2Ni,"{'Th': 1.0, 'Si': 2.0, 'Ni': 1.0}",0.11794173349478762,8.192189855018492,"{'G_Reuss': 75.0, 'G_VRH': 77.0, 'G_Voigt': 79.0, 'G_Voigt_Reuss_Hill': 77.0, 'K_Reuss': 139.0, 'K_VRH': 139.0, 'K_Voigt': 139.0, 'K_Voigt_Reuss_Hill': 139.0, 'elastic_anisotropy': 0.26, 'elastic_tensor': [[213.0, 106.0, 85.0, 0.0, 0.0, 0.0], [106.0, 223.0, 104.0, 0.0, 0.0, 0.0], [85.0, 104.0, 229.0, 0.0, 0.0, 0.0], [0.0, 0.0, 0.0, 97.0, 0.0, 0.0], [0.0, 0.0, 0.0, 0.0, 73.0, 0.0], [0.0, 0.0, 0.0, 0.0, 0.0, 99.0]], 'homogeneous_poisson': 0.27, 'poisson_ratio': 0.27, 'universal_anisotropy': 0.26, 'elastic_tensor_original': [[213.35161973420057, 101.11731272781917, 84.59647128480714, 0.0, 0.0, 6.1998987662933196e-06], [110.85668937662483, 223.0137582063922, 108.57805351659238, 0.0, 0.0, 1.3600077949031973e-05], [85.56017995492773, 98.43050986616463, 229.48504073379982, 0.0, 0.0, 5.999974877782692e-06], [0.0, 0.0, 0.0, 97.42735403821399, 5.899957503277207e-06, 0.0], [0.0, 0.0, 0.0, 0.0, 72.72957267972265, 0.0], [1.2048913316292878e-05, 0.0, 0.0, 0.0, 0.0, 98.89019476052917]], 'compliance_tensor': [[6.4, -2.5, -1.3, 0.0, 0.0, -0.0], [-2.5, 6.6, -2.1, 0.0, 0.0, -0.0], [-1.3, -2.1, 5.8, 0.0, 0.0, 0.0], [0.0, 0.0, 0.0, 10.3, -0.0, 0.0], [0.0, 0.0, 0.0, -0.0, 13.7, 0.0], [-0.0, -0.0, 0.0, 0.0, 0.0, 10.1]], 'warnings': ['Contains a rare earth element'], 'nsites': 8}",0.0,77.0,139.0,0.26,0.27,195.58
246,mp-10446,Sc6NiTe2,"{'Sc': 6.0, 'Ni': 1.0, 'Te': 2.0}",0.18986613059329524,4.940822776854949,"{'G_Reuss': 25.0, 'G_VRH': 30.0, 'G_Voigt': 35.0, 'G_Voigt_Reuss_Hill': 30.0, 'K_Reuss': 73.0, 'K_VRH': 73.0, 'K_Voigt': 73.0, 'K_Voigt_Reuss_Hill': 73.0, 'elastic_anisotropy': 1.8, 'elastic_tensor': [[105.0, 75.0, 45.0, 0.0, 0.0, 0.0], [75.0, 105.0, 45.0, 0.0, 0.0, 0.0], [45.0, 45.0, 118.0, 0.0, 0.0, 0.0], [0.0, 0.0, 0.0, 52.0, 0.0, 0.0], [0.0, 0.0, 0.0, 0.0, 52.0, 0.0], [0.0, 0.0, 0.0, 0.0, 0.0, 15.0]], 'homogeneous_poisson': 0.32, 'poisson_ratio': 0.32, 'universal_anisotropy': 1.8, 'elastic_tensor_original': [[97.18419446482794, 86.44874682844419, 47.58827756657896, 0.0, 0.0, 0.0], [85.4286016409101, 92.21649139180346, 42.34592256116899, 0.0, 0.0, 0.0], [44.243763105562074, 44.24375614664748, 117.81086220681487, 0.0, 0.0, 0.0], [0.0005229565211280356, 3.641332320011627e-05, 0.00030323324894356626, 51.71334898482812, 0.0, 0.0], [0.0033682814151243965, 0.004372097510125463, 0.003808097831318789, 0.0, 51.63566099390008, 0.0], [-0.025679509069074548, -0.026421791893732238, -0.0267814583139309, 0.0, 0.0, 25.90173628678297]], 'compliance_tensor': [[19.9, -13.1, -2.6, 0.0, -0.0, -0.0], [-13.1, 19.9, -2.6, -0.0, 0.0, -0.0], [-2.6, -2.6, 10.4, -0.0, -0.0, 0.0], [-0.0, 0.0, -0.0, 19.4, -0.0, 0.0], [-0.0, 0.0, -0.0, -0.0, 19.4, 0.0], [-0.0, -0.0, 0.0, -0.0, 0.0, 66.0]], 'warnings': [], 'nsites': 9}",0.0,30.0,73.0,1.8,0.32,79.2
247,mp-10847,NiSbSe,"{'Ni': 1.0, 'Sb': 1.0, 'Se': 1.0}",0.14736407161704382,7.511400220221796,"{'G_Reuss': 46.0, 'G_VRH': 47.0, 'G_Voigt': 48.0, 'G_Voigt_Reuss_Hill': 47.0, 'K_Reuss': 90.0, 'K_VRH': 90.0, 'K_Voigt': 90.0, 'K_Voigt_Reuss_Hill': 90.0, 'elastic_anisotropy': 0.14, 'elastic_tensor': [[167.0, 52.0, 52.0, 0.0, 0.0, 0.0], [52.0, 167.0, 52.0, 0.0, 0.0, 0.0], [52.0, 52.0, 167.0, 0.0, 0.0, 0.0], [0.0, 0.0, 0.0, 41.0, 0.0, 0.0], [0.0, 0.0, 0.0, 0.0, 41.0, 0.0], [0.0, 0.0, 0.0, 0.0, 0.0, 41.0]], 'homogeneous_poisson': 0.28, 'poisson_ratio': 0.28, 'universal_anisotropy': 0.14, 'elastic_tensor_original': [[166.98948464974632, 51.93243561148032, 51.79295975558589, 0.0, 0.0, 0.0], [51.90512037184095, 167.3106834325705, 51.999022021183194, 0.0, 0.0, 0.0], [52.15640384175397, 52.046401480637456, 167.34890365508554, 0.0, 0.0, 0.0], [-0.014827425449487779, -0.03719465022334544, -0.02900315791215223, 41.17039654608016, 0.0, 0.0], [-0.0002062598903287728, -0.0002518831994050031, -0.0002216532154787262, 0.0, 40.95926668833939, 0.0], [-0.0004071831168309724, -0.00038351646274786247, -0.0003375298205330363, 0.0, 0.0, 41.17753812894961]], 'compliance_tensor': [[7.0, -1.7, -1.7, 0.0, 0.0, 0.0], [-1.7, 7.0, -1.7, 0.0, 0.0, 0.0], [-1.7, -1.7, 7.0, 0.0, 0.0, 0.0], [0.0, 0.0, 0.0, 24.3, 0.0, 0.0], [0.0, 0.0, 0.0, 0.0, 24.3, 0.0], [0.0, 0.0, 0.0, 0.0, 0.0, 24.3]], 'warnings': [], 'nsites': 12}",0.0,47.0,90.0,0.14,0.28,120.32000000000001
248,mp-11533,ZrZnNi4,"{'Zr': 1.0, 'Zn': 1.0, 'Ni': 4.0}",0.15804598190532185,8.345601092977342,"{'G_Reuss': 70.0, 'G_VRH': 71.0, 'G_Voigt': 73.0, 'G_Voigt_Reuss_Hill': 71.0, 'K_Reuss': 167.0, 'K_VRH': 167.0, 'K_Voigt': 167.0, 'K_Voigt_Reuss_Hill': 167.0, 'elastic_anisotropy': 0.21, 'elastic_tensor': [[241.0, 130.0, 130.0, 0.0, 0.0, 0.0], [130.0, 241.0, 130.0, 0.0, 0.0, 0.0], [130.0, 130.0, 241.0, 0.0, 0.0, 0.0], [0.0, 0.0, 0.0, 84.0, 0.0, 0.0], [0.0, 0.0, 0.0, 0.0, 84.0, 0.0], [0.0, 0.0, 0.0, 0.0, 0.0, 84.0]], 'homogeneous_poisson': 0.31, 'poisson_ratio': 0.31, 'universal_anisotropy': 0.21, 'elastic_tensor_original': [[241.93066900060975, 130.58597757070783, 130.58597757070783, 0.0, 0.0, 0.0], [129.4499454059183, 239.95275552739827, 129.4499454059183, 0.0, 0.0, 0.0], [129.5607965172847, 129.5607965172847, 240.28338643385757, 0.0, 0.0, 0.0], [-0.04283783915465236, -0.04193094343453092, -0.04175138296102986, 83.95712097300562, 0.0, 0.0], [-0.04402884042266224, -0.04492796964378898, -0.04384331330893186, 0.0, 83.95738927032721, 0.0], [0.00032198008714879857, 0.00032192342546246485, 0.00031669009673441806, 0.0, 0.0, 83.95518800113362]], 'compliance_tensor': [[6.7, -2.3, -2.3, 0.0, 0.0, -0.0], [-2.3, 6.7, -2.3, 0.0, 0.0, 0.0], [-2.3, -2.3, 6.7, 0.0, 0.0, -0.0], [0.0, 0.0, 0.0, 11.9, 0.0, 0.0], [0.0, 0.0, 0.0, 0.0, 11.9, 0.0], [-0.0, 0.0, -0.0, 0.0, 0.0, 11.9]], 'warnings': [], 'nsites': 6}",0.0,71.0,167.0,0.21,0.31,186.02
249,mp-13436,PrMgNi4,"{'Pr': 1.0, 'Mg': 1.0, 'Ni': 4.0}",0.15819648807030393,7.275103141997756,"{'G_Reuss': 47.0, 'G_VRH': 47.0, 'G_Voigt': 48.0, 'G_Voigt_Reuss_Hill': 47.0, 'K_Reuss': 126.0, 'K_VRH': 126.0, 'K_Voigt': 126.0, 'K_Voigt_Reuss_Hill': 126.0, 'elastic_anisotropy': 0.16, 'elastic_tensor': [[177.0, 101.0, 101.0, 0.0, 0.0, 0.0], [101.0, 177.0, 101.0, 0.0, 0.0, 0.0], [101.0, 101.0, 177.0, 0.0, 0.0, 0.0], [0.0, 0.0, 0.0, 55.0, 0.0, 0.0], [0.0, 0.0, 0.0, 0.0, 55.0, 0.0], [0.0, 0.0, 0.0, 0.0, 0.0, 55.0]], 'homogeneous_poisson': 0.33, 'poisson_ratio': 0.33, 'universal_anisotropy': 0.16, 'elastic_tensor_original': [[176.9442140877308, 100.81073071914723, 100.81073071914723, 0.0, 0.0, 0.0], [100.81073071914723, 176.9442140877308, 100.81073071914723, 0.0, 0.0, 0.0], [100.81073071914723, 100.81073071914723, 176.9442140877308, 0.0, 0.0, 0.0], [0.0, 0.0, 0.0, 54.730231144065115, 0.0, 0.0], [0.0, 0.0, 0.0, 0.0, 54.730231144065115, 0.0], [0.0, 0.0, 0.0, 0.0, 0.0, 54.730231144065115]], 'compliance_tensor': [[9.6, -3.5, -3.5, 0.0, -0.0, -0.0], [-3.5, 9.6, -3.5, -0.0, 0.0, 0.0], [-3.5, -3.5, 9.6, -0.0, -0.0, 0.0], [0.0, -0.0, -0.0, 18.3, 0.0, -0.0], [-0.0, 0.0, -0.0, 0.0, 18.3, -0.0], [-0.0, 0.0, 0.0, -0.0, -0.0, 18.3]], 'warnings': ['Contains a rare earth element'], 'nsites': 6}",0.0,47.0,126.0,0.16,0.33,125.02000000000001