,mp_id,Formula,Composition,IPF,Density,Elastic_Tensor,E_above_Hull,G_VRH,K_VRH,Elastic_Anisotropy,poisson_ratio,Y_Modulus
353,mp-10398,HoNi4B,"{'Ho': 1.0, 'Ni': 4.0, 'B': 1.0}",0.15997149059245586,9.238511088181717,"{'G_Reuss': 76.0, 'G_VRH': 76.0, 'G_Voigt': 77.0, 'G_Voigt_Reuss_Hill': 76.0, 'K_Reuss': 153.0, 'K_VRH': 153.0, 'K_Voigt': 153.0, 'K_Voigt_Reuss_Hill': 153.0, 'elastic_anisotropy': 0.02, 'elastic_tensor': [[259.0, 98.0, 99.0, 0.0, 0.0, 0.0], [98.0, 259.0, 99.0, 0.0, 0.0, 0.0], [99.0, 99.0, 263.0, 0.0, 0.0, 0.0], [0.0, 0.0, 0.0, 70.0, 0.0, 0.0], [0.0, 0.0, 0.0, 0.0, 70.0, 0.0], [0.0, 0.0, 0.0, 0.0, 0.0, 81.0]], 'homogeneous_poisson': 0.29, 'poisson_ratio': 0.29, 'universal_anisotropy': 0.02, 'elastic_tensor_original': [[247.43787837527336, 89.47162616108423, 95.71304232320738, 0.0, 0.0, 0.0], [107.37257368047037, 269.49464031924714, 116.37433657414905, 0.0, 0.0, 3.1199569161761453e-05], [91.93782166558687, 91.93780386570603, 262.9505061157669, 0.0, 0.0, 1.0599929032241815e-05], [0.0, 0.0, 0.0, 69.06153407536499, 8.000034713687802e-06, 0.0], [0.0, 0.0, 0.0, 0.0, 71.13118535610246, 0.0], [0.0, 0.0, 0.0, 0.0, 0.0, 81.56483115192076]], 'compliance_tensor': [[4.865123594655091, -1.3234954927927234, -1.3332869836425256, 0.0, 0.0, -3.2217711958237257e-16], [-1.3234954927927227, 4.865125482401555, -1.333287242310934, 0.0, 0.0, 7.756443560221751e-17], [-1.333286983642526, -1.3332872423109337, 4.8068596844219895, 0.0, 0.0, 2.0885129615186447e-17], [0.0, 0.0, 0.0, 14.266077475227547, -7.53048002387104e-17, 0.0], [0.0, 0.0, 0.0, -7.53048002387104e-17, 14.266074707494218, 0.0], [-4.938980533336502e-16, 2.2332953268295475e-16, 3.0656515368540044e-17, 0.0, 0.0, 12.377240062641905]], 'warnings': ['Structure contains a rare earth element'], 'nsites': 12}",0.0,76.0,153.0,0.02,0.29,196.08
354,mp-11431,CaGa3Ni2,"{'Ca': 1.0, 'Ga': 3.0, 'Ni': 2.0}",0.15164950561245705,6.107405067688984,"{'G_Reuss': 37.0, 'G_VRH': 39.0, 'G_Voigt': 41.0, 'G_Voigt_Reuss_Hill': 39.0, 'K_Reuss': 82.0, 'K_VRH': 85.0, 'K_Voigt': 87.0, 'K_Voigt_Reuss_Hill': 85.0, 'elastic_anisotropy': 0.48, 'elastic_tensor': [[155.0, 66.0, 63.0, 0.0, 0.0, 0.0], [66.0, 100.0, 52.0, 0.0, 0.0, 0.0], [63.0, 52.0, 167.0, 0.0, 0.0, 0.0], [0.0, 0.0, 0.0, 42.0, 0.0, 0.0], [0.0, 0.0, 0.0, 0.0, 52.0, 0.0], [0.0, 0.0, 0.0, 0.0, 0.0, 29.0]], 'homogeneous_poisson': 0.3, 'poisson_ratio': 0.3, 'universal_anisotropy': 0.48, 'elastic_tensor_original': [[154.90163368551913, 66.82993521022, 63.41093366609345, 0.0, 0.0, 0.0], [65.76764218272554, 99.75617309324694, 52.00814973206751, 0.0, 0.0, 0.0], [62.11235680374685, 52.43239096667319, 167.35423647170356, 0.0, 0.0, 0.0], [-0.00657720870152354, -0.006371068846691169, -0.005720829304603597, 42.27071490206637, 0.0, 0.0], [-0.0035575979753127525, -0.0030064848546632497, -0.0037033745861756577, 0.0, 51.66438760360325, 0.0], [0.024628006394573673, 0.024627433903110778, 0.022567963012247186, 0.0, 0.0, 28.946935589697507]], 'compliance_tensor': [[9.5, -5.3, -1.9, 0.0, 0.0, -0.0], [-5.3, 15.0, -2.7, 0.0, 0.0, 0.0], [-1.9, -2.7, 7.5, 0.0, 0.0, -0.0], [0.0, 0.0, 0.0, 23.7, 0.0, 0.0], [0.0, 0.0, 0.0, 0.0, 19.4, 0.0], [-0.0, 0.0, -0.0, 0.0, 0.0, 34.5]], 'warnings': [], 'nsites': 12}",0.0,39.0,85.0,0.48,0.3,101.4
355,mp-11752,Lu7(NiTe)2,"{'Lu': 7.0, 'Ni': 2.0, 'Te': 2.0}",0.18748357907405544,9.764624745186966,"{'G_Reuss': 33.0, 'G_VRH': 34.0, 'G_Voigt': 34.0, 'G_Voigt_Reuss_Hill': 34.0, 'K_Reuss': 60.0, 'K_VRH': 61.0, 'K_Voigt': 62.0, 'K_Voigt_Reuss_Hill': 61.0, 'elastic_anisotropy': 0.21, 'elastic_tensor': [[85.0, 45.0, 37.0, 0.0, 0.0, 0.0], [45.0, 120.0, 42.0, 0.0, 0.0, 0.0], [37.0, 42.0, 100.0, 0.0, 0.0, 0.0], [0.0, 0.0, 0.0, 45.0, 0.0, 0.0], [0.0, 0.0, 0.0, 0.0, 33.0, 0.0], [0.0, 0.0, 0.0, 0.0, 0.0, 34.0]], 'homogeneous_poisson': 0.27, 'poisson_ratio': 0.27, 'universal_anisotropy': 0.21, 'elastic_tensor_original': [[85.3770792886998, 46.055326504471374, 37.247819940759626, 0.0, 0.0, 0.0], [44.332342043741846, 120.23907049120918, 42.02723975888127, 0.0, 0.0, 0.0], [36.82828100730797, 42.74564691176127, 100.46087773140617, 0.0, 0.0, 0.0], [0.0, 0.0, 6.004267084101259e-06, 45.25709365802101, 0.0, 0.0], [0.0, 0.0, 0.0, 0.0, 32.50291176651889, 0.0], [0.0, 0.0, 0.0, 0.0, 0.0, 34.24773654933681]], 'compliance_tensor': [[15.827521584667409, -4.571994604040083, -3.9062962814981623, -6.065673642927693e-07, -2.448634453142947e-16, 1.0362593847758784e-15], [-4.571994604040081, 11.09056426319355, -2.9937206759355908, 1.4713871988794863e-06, 8.264002848763841e-17, 9.513830818296133e-16], [-3.906296281498163, -2.993720675935589, 12.65741251069598, 1.0685616311477612e-06, -1.701348269607937e-17, -2.880477776580542e-16], [-6.06567364292769e-07, 1.4713871988794855e-06, 1.0685616311477622e-06, 22.095983616543293, 1.088202537846384e-15, -2.0877388303110265e-16], [-2.4486344531429473e-16, 8.264002848763834e-17, -1.7013482696079313e-17, 1.088202537846384e-15, 30.766474314159733, 1.9369190073586893e-06], [1.0362593847758782e-15, 9.513830818296127e-16, -2.8804777765805407e-16, -2.087738830311026e-16, 1.9369190073586897e-06, 29.199009942143473]], 'warnings': ['Structure contains a rare earth element'], 'nsites': 11}",0.0,34.0,61.0,0.21,0.27,86.36
356,mp-16516,TbAl2Ni,"{'Tb': 1.0, 'Al': 2.0, 'Ni': 1.0}",0.1143908625008508,6.264764625529814,"{'G_Reuss': 52.0, 'G_VRH': 54.0, 'G_Voigt': 56.0, 'G_Voigt_Reuss_Hill': 54.0, 'K_Reuss': 82.0, 'K_VRH': 83.0, 'K_Voigt': 85.0, 'K_Voigt_Reuss_Hill': 83.0, 'elastic_anisotropy': 0.46, 'elastic_tensor': [[146.0, 45.0, 71.0, 0.0, 0.0, 0.0], [45.0, 122.0, 51.0, 0.0, 0.0, 0.0], [71.0, 51.0, 158.0, 0.0, 0.0, 0.0], [0.0, 0.0, 0.0, 49.0, 0.0, 0.0], [0.0, 0.0, 0.0, 0.0, 89.0, 0.0], [0.0, 0.0, 0.0, 0.0, 0.0, 58.0]], 'homogeneous_poisson': 0.23, 'poisson_ratio': 0.23, 'universal_anisotropy': 0.46, 'elastic_tensor_original': [[145.9567956193087, 38.637638379969005, 70.40621004138619, -7.400102041074491e-06, 0.0, 0.0], [50.50273686007359, 122.03144117066228, 54.83653572654354, -2.340012670601177e-05, 0.0, 0.0], [72.3024583473628, 47.570632012426735, 158.32043660044542, 0.0, 0.0, 0.0], [0.0, 0.0, -9.5244234109167e-06, 48.73080296664126, 0.0, 0.0], [0.0, 0.0, 0.0, 0.0, 89.46001111740041, -2.000023707351631e-07], [0.0, 0.0, 0.0, 0.0, -1.1199931327293889e-05, 57.88253849035924]], 'compliance_tensor': [[9.1, -1.9, -3.5, 0.0, 0.0, 0.0], [-1.9, 9.9, -2.3, -0.0, 0.0, 0.0], [-3.5, -2.3, 8.7, -0.0, 0.0, 0.0], [0.0, -0.0, -0.0, 20.5, 0.0, 0.0], [0.0, 0.0, 0.0, 0.0, 11.2, -0.0], [0.0, 0.0, 0.0, 0.0, -0.0, 17.3]], 'warnings': ['Contains a rare earth element'], 'nsites': 8}",0.0,54.0,83.0,0.46,0.23,132.84
357,mp-18732,TiNiO3,"{'Ti': 1.0, 'Ni': 1.0, 'O': 3.0}",0.5672477875205336,4.948071791584746,"{'G_Reuss': 81.0, 'G_VRH': 82.0, 'G_Voigt': 83.0, 'G_Voigt_Reuss_Hill': 82.0, 'K_Reuss': 175.0, 'K_VRH': 177.0, 'K_Voigt': 180.0, 'K_Voigt_Reuss_Hill': 177.0, 'elastic_anisotropy': 0.13, 'elastic_tensor': [[317.0, 152.0, 105.0, 8.0, 6.0, 0.0], [152.0, 317.0, 105.0, -8.0, -6.0, 0.0], [105.0, 105.0, 259.0, 0.0, 0.0, 0.0], [8.0, -8.0, 0.0, 78.0, 0.0, -6.0], [6.0, -6.0, 0.0, 0.0, 78.0, 8.0], [0.0, 0.0, 0.0, -6.0, 8.0, 83.0]], 'homogeneous_poisson': 0.3, 'poisson_ratio': 0.3, 'universal_anisotropy': 0.13, 'elastic_tensor_original': [[318.1114372511955, 150.904570599687, 104.7094787371596, -8.345695240235333, -5.585603384283971, -0.01748203032164929], [151.03910640121444, 317.31842965139566, 104.4992579712093, 7.823925332738979, 5.896576323817226, -0.04035096026727431], [105.48754426774275, 105.48753686850024, 259.12113866237695, 0.0, 0.0, 3.3964639352304506e-07], [-7.57593755302713, 7.31606916734351, 0.2106789727095991, 77.8449869018019, -0.048424778554688755, 5.693328246596395], [-6.081975106649394, 5.595072292780838, 0.5155542946630622, -0.03602994894243194, 77.80408161247225, -7.4200549174291615], [0.22919732528940112, 0.16312289276518308, 0.22778208924735796, 5.673319392624876, -7.270842176231259, 82.20640498997743]], 'compliance_tensor': [[4.4, -1.8, -1.1, -0.6, -0.5, 0.0], [-1.8, 4.4, -1.1, 0.6, 0.5, 0.0], [-1.1, -1.1, 4.7, -0.0, -0.0, -0.0], [-0.6, 0.6, -0.0, 13.0, 0.0, 0.9], [-0.5, 0.5, -0.0, 0.0, 13.0, -1.2], [0.0, 0.0, -0.0, 0.9, -1.2, 12.3]], 'warnings': [], 'nsites': 20}",0.0,82.0,177.0,0.13,0.3,213.20000000000002
358,mp-18817,NiSeO4,"{'Ni': 1.0, 'Se': 1.0, 'O': 4.0}",0.5477941822529369,4.635240140005986,"{'G_Reuss': 40.0, 'G_VRH': 42.0, 'G_Voigt': 43.0, 'G_Voigt_Reuss_Hill': 42.0, 'K_Reuss': 65.0, 'K_VRH': 69.0, 'K_Voigt': 74.0, 'K_Voigt_Reuss_Hill': 69.0, 'elastic_anisotropy': 0.49, 'elastic_tensor': [[90.0, 37.0, 43.0, 0.0, 0.0, 0.0], [37.0, 107.0, 54.0, 0.0, 0.0, 0.0], [43.0, 54.0, 201.0, 0.0, 0.0, 0.0], [0.0, 0.0, 0.0, 37.0, 0.0, 0.0], [0.0, 0.0, 0.0, 0.0, 41.0, 0.0], [0.0, 0.0, 0.0, 0.0, 0.0, 50.0]], 'homogeneous_poisson': 0.25, 'poisson_ratio': 0.25, 'universal_anisotropy': 0.49, 'elastic_tensor_original': [[200.68066627045079, 55.53001564901825, 42.395506200565976, 0.0, 0.0, 0.0], [52.63452980694783, 106.85074894057546, 36.95759098399927, 0.0, 0.0, 0.0], [43.33870528609955, 37.16566015246931, 90.09501908035423, 0.0016781036666866022, -7.820350912325219e-06, -1.4084611592095926e-05], [-0.00012708007803827653, 2.281998630321322e-05, 0.00012415337604169038, 49.76654043889904, 0.0, 0.0], [4.899001291304411e-05, -0.00016324670969137937, -0.00043989344927108785, 0.0, 41.31304742510554, 0.0], [-0.0005389234833902045, -0.0004776734663356671, -0.0008825369123981956, 0.0, 0.0, 37.33219256803501]], 'compliance_tensor': [[13.5, -3.7, -1.9, 0.0, 0.0, 0.0], [-3.7, 11.9, -2.4, 0.0, 0.0, 0.0], [-1.9, -2.4, 6.0, -0.0, 0.0, 0.0], [0.0, 0.0, -0.0, 26.8, 0.0, 0.0], [0.0, 0.0, 0.0, 0.0, 24.2, 0.0], [0.0, 0.0, 0.0, 0.0, 0.0, 20.1]], 'warnings': [], 'nsites': 12}",0.0,42.0,69.0,0.49,0.25,105.0
359,mp-21157,TmNiGe,"{'Tm': 1.0, 'Ni': 1.0, 'Ge': 1.0}",0.17581956344798677,9.623630350985682,"{'G_Reuss': 59.0, 'G_VRH': 59.0, 'G_Voigt': 60.0, 'G_Voigt_Reuss_Hill': 59.0, 'K_Reuss': 94.0, 'K_VRH': 95.0, 'K_Voigt': 97.0, 'K_Voigt_Reuss_Hill': 95.0, 'elastic_anisotropy': 0.18, 'elastic_tensor': [[157.0, 52.0, 34.0, 0.0, 0.0, 0.0], [52.0, 181.0, 88.0, 0.0, 0.0, 0.0], [34.0, 88.0, 183.0, 0.0, 0.0, 0.0], [0.0, 0.0, 0.0, 69.0, 0.0, 0.0], [0.0, 0.0, 0.0, 0.0, 55.0, 0.0], [0.0, 0.0, 0.0, 0.0, 0.0, 63.0]], 'homogeneous_poisson': 0.24, 'poisson_ratio': 0.24, 'universal_anisotropy': 0.18, 'elastic_tensor_original': [[156.68102077786253, 57.023090840277824, 25.683236285176463, 0.0, 0.0, 0.0], [47.90480097411512, 180.97804431970644, 76.36857459659277, 0.0, 0.0, 0.0], [43.084024024224306, 99.0876281930566, 183.41027905136758, 0.0, 0.0, 0.0], [0.0, 0.0, 0.0, 68.63309076850929, 0.0, 0.0], [0.0, 0.0, 0.0, 0.0, 55.2491098588178, 0.0], [0.0, 0.0, 0.0, 0.0, 0.0, 62.544647396946324]], 'compliance_tensor': [[7.0970629354128505, -1.8387766585383565, -0.45095837834701286, 0.0, 0.0, 0.0], [-1.8387766585383567, 7.669810629819569, -3.323881906732703, 0.0, 0.0, 0.0], [-0.4509583783470129, -3.3238819067327023, 7.126664011390755, 0.0, 0.0, 0.0], [0.0, 0.0, 0.0, 14.57023119318454, 0.0, 0.0], [0.0, 0.0, 0.0, 0.0, 18.09983912058267, 0.0], [0.0, 0.0, 0.0, 0.0, 0.0, 15.988578425478881]], 'warnings': ['Structure contains a rare earth element'], 'nsites': 12}",0.0,59.0,95.0,0.18,0.24,146.32
360,mp-22617,YNiSn,"{'Y': 1.0, 'Ni': 1.0, 'Sn': 1.0}",0.1425462151527338,7.159711760304433,"{'G_Reuss': 40.0, 'G_VRH': 42.0, 'G_Voigt': 44.0, 'G_Voigt_Reuss_Hill': 42.0, 'K_Reuss': 90.0, 'K_VRH': 91.0, 'K_Voigt': 91.0, 'K_Voigt_Reuss_Hill': 91.0, 'elastic_anisotropy': 0.41, 'elastic_tensor': [[145.0, 59.0, 45.0, 0.0, 0.0, 0.0], [59.0, 137.0, 91.0, 0.0, 0.0, 0.0], [45.0, 91.0, 147.0, 0.0, 0.0, 0.0], [0.0, 0.0, 0.0, 48.0, 0.0, 0.0], [0.0, 0.0, 0.0, 0.0, 47.0, 0.0], [0.0, 0.0, 0.0, 0.0, 0.0, 46.0]], 'homogeneous_poisson': 0.3, 'poisson_ratio': 0.3, 'universal_anisotropy': 0.41, 'elastic_tensor_original': [[146.67027029990567, 44.43913981513517, 92.0417993313526, 0.0, 0.0, 0.0], [45.87127287162277, 144.73692495885822, 59.31385330643151, 0.0, 0.0, 0.0], [89.00699901445586, 59.6307239894015, 137.3190103644182, 0.0, 0.0, 0.0], [-0.1216570126305107, -0.14520130486112148, -0.13906457775500275, 46.394503841861386, 0.0, 0.0], [0.01058872026706032, 0.017102598712237172, 0.006047828415173913, 0.0, 47.520903235707, 0.0], [0.025091137721870965, 0.02621765205399964, 0.024747354177968896, 0.0, 0.0, 47.051255588129266]], 'compliance_tensor': [[8.4, -3.3, -0.6, 0.0, -0.0, 0.0], [-3.3, 13.5, -7.4, 0.0, 0.0, 0.0], [-0.6, -7.4, 11.5, 0.0, -0.0, 0.0], [0.0, 0.0, 0.0, 21.0, 0.0, 0.0], [-0.0, 0.0, -0.0, 0.0, 21.3, 0.0], [0.0, 0.0, 0.0, 0.0, 0.0, 21.6]], 'warnings': [], 'nsites': 12}",0.0,42.0,91.0,0.41,0.3,109.2
361,mp-30460,YNiBi,"{'Y': 1.0, 'Ni': 1.0, 'Bi': 1.0}",0.16117955771134665,8.634149276784548,"{'G_Reuss': 47.0, 'G_VRH': 48.0, 'G_Voigt': 49.0, 'G_Voigt_Reuss_Hill': 48.0, 'K_Reuss': 77.0, 'K_VRH': 77.0, 'K_Voigt': 77.0, 'K_Voigt_Reuss_Hill': 77.0, 'elastic_anisotropy': 0.18, 'elastic_tensor': [[158.0, 37.0, 37.0, 0.0, 0.0, 0.0], [37.0, 158.0, 37.0, 0.0, 0.0, 0.0], [37.0, 37.0, 158.0, 0.0, 0.0, 0.0], [0.0, 0.0, 0.0, 41.0, 0.0, 0.0], [0.0, 0.0, 0.0, 0.0, 41.0, 0.0], [0.0, 0.0, 0.0, 0.0, 0.0, 41.0]], 'homogeneous_poisson': 0.24, 'poisson_ratio': 0.24, 'universal_anisotropy': 0.18, 'elastic_tensor_original': [[157.94680520344494, 37.172001641216355, 37.172001641216355, 0.0, 0.0, 0.0], [37.176638717121655, 157.95049398249597, 37.176638717121655, 0.0, 0.0, 0.0], [37.251971845772765, 37.251971845772765, 158.02686204024545, 0.0, 0.0, 0.0], [-0.0007433318311708141, -0.0007377118637700292, -0.0007411751414916653, 41.162827682532445, 0.0, 0.0], [1.6020029729147593e-05, 1.0280045645895556e-05, 2.9413396104694476e-05, 0.0, 41.167582254034954, 0.0], [0.001610867088129981, 0.0015720337813457349, 0.0015602970192537984, 0.0, 0.0, 41.16295100932319]], 'compliance_tensor': [[7.0, -1.3, -1.3, 0.0, 0.0, -0.0], [-1.3, 7.0, -1.3, -0.0, 0.0, 0.0], [-1.3, -1.3, 7.0, 0.0, -0.0, 0.0], [0.0, -0.0, 0.0, 24.3, -0.0, -0.0], [0.0, 0.0, -0.0, -0.0, 24.3, -0.0], [-0.0, 0.0, 0.0, -0.0, -0.0, 24.3]], 'warnings': [], 'nsites': 3}",0.0,48.0,77.0,0.18,0.24,119.03999999999999
362,mp-30656,TiGaNi,"{'Ti': 1.0, 'Ga': 1.0, 'Ni': 1.0}",0.14626959340348458,6.991897317964257,"{'G_Reuss': 61.0, 'G_VRH': 69.0, 'G_Voigt': 77.0, 'G_Voigt_Reuss_Hill': 69.0, 'K_Reuss': 146.0, 'K_VRH': 147.0, 'K_Voigt': 148.0, 'K_Voigt_Reuss_Hill': 147.0, 'elastic_anisotropy': 1.26, 'elastic_tensor': [[248.0, 85.0, 125.0, 0.0, 0.0, 0.0], [85.0, 248.0, 125.0, 0.0, 0.0, 0.0], [125.0, 125.0, 167.0, 0.0, 0.0, 0.0], [0.0, 0.0, 0.0, 96.0, 0.0, 0.0], [0.0, 0.0, 0.0, 0.0, 96.0, 0.0], [0.0, 0.0, 0.0, 0.0, 0.0, 81.0]], 'homogeneous_poisson': 0.3, 'poisson_ratio': 0.3, 'universal_anisotropy': 1.26, 'elastic_tensor_original': [[249.0780879517091, 85.55939153852323, 125.58572277967514, 0.0, 0.0, 0.0], [84.73339623758666, 248.09440002831255, 125.58253881023579, 0.0, 0.0, 0.0], [123.44243089086112, 123.4424713469817, 166.81807699420403, 0.0, 0.0, 0.0], [-0.000159896993813632, 0.00011272977402929659, 1.7186395017529775e-05, 96.2945836414549, 0.0, 0.0], [-0.0018686318511800877, -0.0020356717186885607, -0.0019195584774521917, 0.0, 96.31498937192842, 0.0], [6.4963339410839e-05, 0.00013047334554201843, 9.40533421353794e-05, 0.0, 0.0, 81.03710847190307]], 'compliance_tensor': [[6.5, 0.3, -5.0, 0.0, 0.0, 0.0], [0.3, 6.5, -5.0, 0.0, -0.0, 0.0], [-5.0, -5.0, 13.5, -0.0, -0.0, -0.0], [-0.0, 0.0, -0.0, 10.4, 0.0, 0.0], [-0.0, -0.0, 0.0, 0.0, 10.4, -0.0], [0.0, 0.0, -0.0, 0.0, -0.0, 12.3]], 'warnings': [], 'nsites': 9}",0.0,69.0,147.0,1.26,0.3,179.4
363,mp-4091,Ni2Mo3N,"{'Ni': 2.0, 'Mo': 3.0, 'N': 1.0}",0.13934656681499086,9.425318334147274,"{'G_Reuss': 139.0, 'G_VRH': 141.0, 'G_Voigt': 142.0, 'G_Voigt_Reuss_Hill': 141.0, 'K_Reuss': 273.0, 'K_VRH': 273.0, 'K_Voigt': 273.0, 'K_Voigt_Reuss_Hill': 273.0, 'elastic_anisotropy': 0.11, 'elastic_tensor': [[431.0, 195.0, 195.0, 0.0, 0.0, 0.0], [195.0, 431.0, 195.0, 0.0, 0.0, 0.0], [195.0, 195.0, 431.0, 0.0, 0.0, 0.0], [0.0, 0.0, 0.0, 159.0, 0.0, 0.0], [0.0, 0.0, 0.0, 0.0, 159.0, 0.0], [0.0, 0.0, 0.0, 0.0, 0.0, 159.0]], 'homogeneous_poisson': 0.28, 'poisson_ratio': 0.28, 'universal_anisotropy': 0.11, 'elastic_tensor_original': [[431.70907332282246, 195.88871973185175, 195.88871973185175, 0.0, 0.0, 0.0], [193.1645362320315, 429.19047896157355, 193.1645362320315, 0.0, 0.0, 0.0], [195.4034663326215, 195.4034663326215, 431.42438633015433, 0.0, 0.0, 0.0], [0.6555508247106102, 0.658757255666875, 0.6590504115195516, 158.78225593983657, 0.0, 0.0], [0.21027211124156833, 0.20191121929594996, 0.21103188838902218, 0.0, 158.76700535036335, 0.0], [0.1211515948033061, 0.12062541470536857, 0.12139522531143915, 0.0, 0.0, 158.75743527479193]], 'compliance_tensor': [[3.2, -1.0, -1.0, 0.0, -0.0, 0.0], [-1.0, 3.2, -1.0, -0.0, 0.0, -0.0], [-1.0, -1.0, 3.2, -0.0, 0.0, 0.0], [0.0, -0.0, -0.0, 6.3, -0.0, 0.0], [-0.0, 0.0, 0.0, -0.0, 6.3, -0.0], [0.0, -0.0, 0.0, 0.0, -0.0, 6.3]], 'warnings': [], 'nsites': 24}",0.0,141.0,273.0,0.11,0.28,360.96
364,mp-4316,Sr(NiAs)2,"{'Sr': 1.0, 'Ni': 2.0, 'As': 2.0}",0.17137624730906123,6.541394556604535,"{'G_Reuss': 22.0, 'G_VRH': 30.0, 'G_Voigt': 38.0, 'G_Voigt_Reuss_Hill': 30.0, 'K_Reuss': 39.0, 'K_VRH': 54.0, 'K_Voigt': 69.0, 'K_Voigt_Reuss_Hill': 54.0, 'elastic_anisotropy': 4.14, 'elastic_tensor': [[163.0, 32.0, 47.0, 0.0, 0.0, 0.0], [32.0, 163.0, 47.0, 0.0, 0.0, 0.0], [47.0, 47.0, 40.0, 0.0, 0.0, 0.0], [0.0, 0.0, 0.0, 41.0, 0.0, 0.0], [0.0, 0.0, 0.0, 0.0, 41.0, 0.0], [0.0, 0.0, 0.0, 0.0, 0.0, 26.0]], 'homogeneous_poisson': 0.26, 'poisson_ratio': 0.26, 'universal_anisotropy': 4.14, 'elastic_tensor_original': [[162.81989202661487, 32.30662428031522, 45.75164504845008, 0.0, 0.0, 0.0], [32.28091599106322, 162.80206223057587, 45.728145910257375, 0.0, 0.0, 0.0], [48.06414692843858, 48.06414692843858, 40.08649930118494, 0.0, 0.0, 0.0], [-0.02107270209157735, -0.03285497054894374, -0.022950604599207832, 41.13702144434184, 0.0, 0.0], [-0.06483773985421945, 0.0012428968555651442, -0.029409454469730884, 0.0, 41.13261298811627, 0.0], [-0.00010477334788865657, -0.00010195001416354762, -0.00010514668127377318, 0.0, 0.0, 26.0953461119748]], 'compliance_tensor': [[9.7, 2.0, -13.7, 0.0, 0.0, -0.0], [2.0, 9.7, -13.7, 0.0, 0.0, -0.0], [-13.7, -13.7, 57.0, -0.0, -0.0, 0.0], [0.0, 0.0, -0.0, 24.3, 0.0, -0.0], [0.0, 0.0, -0.0, 0.0, 24.3, 0.0], [-0.0, -0.0, 0.0, -0.0, 0.0, 38.3]], 'warnings': [], 'nsites': 5}",0.0,30.0,54.0,4.14,0.26,75.6
365,mp-4744,Ca(NiAs)2,"{'Ca': 1.0, 'Ni': 2.0, 'As': 2.0}",0.14374274753230462,6.107943624736103,"{'G_Reuss': 38.0, 'G_VRH': 40.0, 'G_Voigt': 42.0, 'G_Voigt_Reuss_Hill': 40.0, 'K_Reuss': 83.0, 'K_VRH': 83.0, 'K_Voigt': 83.0, 'K_Voigt_Reuss_Hill': 83.0, 'elastic_anisotropy': 0.59, 'elastic_tensor': [[161.0, 27.0, 60.0, 0.0, 0.0, 0.0], [27.0, 161.0, 60.0, 0.0, 0.0, 0.0], [60.0, 60.0, 132.0, 0.0, 0.0, 0.0], [0.0, 0.0, 0.0, 42.0, 0.0, 0.0], [0.0, 0.0, 0.0, 0.0, 42.0, 0.0], [0.0, 0.0, 0.0, 0.0, 0.0, 24.0]], 'homogeneous_poisson': 0.29, 'poisson_ratio': 0.29, 'universal_anisotropy': 0.59, 'elastic_tensor_original': [[161.20119347597605, 27.242378914052388, 57.823470193659794, 0.0, 0.0, 0.0], [27.2542209252761, 161.2112329210741, 57.83528920897299, 0.0, 0.0, 0.0], [62.45015303797901, 62.45015303797901, 132.2531908797555, 0.0, 0.0, 0.0], [-0.030387021150238096, -0.049288600299147986, -0.030560871945534692, 42.31994393134502, 0.0, 0.0], [-0.1635068832416274, -0.13750090498681877, -0.18234212811976225, 0.0, 42.32025333100413, 0.0], [0.010369406012172665, 0.010450086117510166, 0.01098095168837386, 0.0, 0.0, 23.658935115839316]], 'compliance_tensor': [[7.5, 0.0, -3.4, 0.0, 0.0, 0.0], [0.0, 7.5, -3.4, 0.0, 0.0, 0.0], [-3.4, -3.4, 10.7, -0.0, -0.0, 0.0], [0.0, 0.0, -0.0, 23.6, 0.0, 0.0], [0.0, 0.0, -0.0, 0.0, 23.6, 0.0], [0.0, 0.0, 0.0, 0.0, 0.0, 42.3]], 'warnings': [], 'nsites': 5}",0.0,40.0,83.0,0.59,0.29,103.2