,mp_id,Formula,Composition,IPF,Density,Elastic_Tensor,E_above_Hull,G_VRH,K_VRH,Elastic_Anisotropy,poisson_ratio,Y_Modulus
66,mp-485,ZrNi3,"{'Zr': 1.0, 'Ni': 3.0}",0.14725244145814792,8.4265843884784,"{'G_Reuss': 69.0, 'G_VRH': 70.0, 'G_Voigt': 71.0, 'G_Voigt_Reuss_Hill': 70.0, 'K_Reuss': 170.0, 'K_VRH': 170.0, 'K_Voigt': 171.0, 'K_Voigt_Reuss_Hill': 170.0, 'elastic_anisotropy': 0.13, 'elastic_tensor': [[268.0, 121.0, 114.0, 0.0, 0.0, 0.0], [121.0, 268.0, 114.0, 0.0, 0.0, 0.0], [114.0, 114.0, 302.0, 0.0, 0.0, 0.0], [0.0, 0.0, 0.0, 59.0, 0.0, 0.0], [0.0, 0.0, 0.0, 0.0, 59.0, 0.0], [0.0, 0.0, 0.0, 0.0, 0.0, 74.0]], 'homogeneous_poisson': 0.32, 'poisson_ratio': 0.32, 'universal_anisotropy': 0.13, 'elastic_tensor_original': [[268.3465169773063, 120.39312941910383, 114.62942250366304, 0.0, 0.0, 0.0], [120.41368811865108, 268.8050403718002, 113.95123678842053, 0.0, 0.0, 0.0], [113.41074271204678, 113.41069937519741, 302.313594717799, 0.0, 0.0, 0.0], [-0.0004357001642403038, 0.0004673537511209086, -0.00011796876213483446, 58.843865377265644, 0.0, 0.0], [0.0007427570377940028, 0.0013431439021143524, -0.00030604393936879107, 0.0, 58.662262716413586, 0.0], [0.00033242005513681123, -0.00011177776869971098, 0.0001334816710018535, 0.0, 0.0, 73.74672037500255]], 'compliance_tensor': [[5.0, -1.7, -1.2, 0.0, -0.0, -0.0], [-1.7, 5.0, -1.2, -0.0, -0.0, -0.0], [-1.2, -1.2, 4.2, -0.0, 0.0, 0.0], [0.0, -0.0, -0.0, 17.0, -0.0, -0.0], [-0.0, -0.0, 0.0, -0.0, 17.0, -0.0], [-0.0, -0.0, 0.0, -0.0, -0.0, 13.5]], 'warnings': [], 'nsites': 8}",0.0,70.0,170.0,0.13,0.32,184.8
67,mp-556,ZrNi,"{'Zr': 1.0, 'Ni': 1.0}",0.12959132422508352,7.396409090426719,"{'G_Reuss': 25.0, 'G_VRH': 35.0, 'G_Voigt': 45.0, 'G_Voigt_Reuss_Hill': 35.0, 'K_Reuss': 138.0, 'K_VRH': 138.0, 'K_Voigt': 139.0, 'K_Voigt_Reuss_Hill': 138.0, 'elastic_anisotropy': 3.93, 'elastic_tensor': [[194.0, 117.0, 124.0, 0.0, 0.0, 0.0], [117.0, 196.0, 102.0, 0.0, 0.0, 0.0], [124.0, 102.0, 175.0, 0.0, 0.0, 0.0], [0.0, 0.0, 0.0, 9.0, 0.0, 0.0], [0.0, 0.0, 0.0, 0.0, 65.0, 0.0], [0.0, 0.0, 0.0, 0.0, 0.0, 77.0]], 'homogeneous_poisson': 0.38, 'poisson_ratio': 0.38, 'universal_anisotropy': 3.93, 'elastic_tensor_original': [[175.24621655814215, 101.57365466505551, 124.22975636426735, 0.0, 0.0, 0.0], [102.57193294943677, 195.70146216979873, 116.97035285177398, 0.0, 0.0, 0.0], [124.08080569270291, 116.78077318083945, 194.07238731491728, 0.0, 0.0, 0.0], [0.0005360030877041422, 0.00023100656080510165, 0.0006000897250012905, 76.75660277203546, 0.0, 0.0], [-0.003501016105187541, -0.0036670863947877684, -0.0034613460360106056, 0.0, 64.80183127693017, 0.0], [-0.0008451181268356695, -0.0008156014091712734, -0.0009884183744247915, 0.0, 0.0, 8.755575064277625]], 'compliance_tensor': [[10.9, -3.6, -5.7, 0.0, 0.0, 0.0], [-3.6, 8.5, -2.4, -0.0, 0.0, 0.0], [-5.7, -2.4, 11.1, -0.0, 0.0, 0.0], [0.0, -0.0, -0.0, 114.2, 0.0, 0.0], [0.0, 0.0, 0.0, 0.0, 15.4, 0.0], [0.0, 0.0, 0.0, 0.0, 0.0, 13.0]], 'warnings': [], 'nsites': 4}",0.0,35.0,138.0,3.93,0.38,96.6
68,mp-559798,NiF2,"{'Ni': 1.0, 'F': 2.0}",0.13433076330198696,4.6553446486177155,"{'G_Reuss': 35.0, 'G_VRH': 40.0, 'G_Voigt': 45.0, 'G_Voigt_Reuss_Hill': 40.0, 'K_Reuss': 127.0, 'K_VRH': 128.0, 'K_Voigt': 129.0, 'K_Voigt_Reuss_Hill': 128.0, 'elastic_anisotropy': 1.39, 'elastic_tensor': [[212.0, 105.0, 105.0, 0.0, 0.0, 0.0], [105.0, 151.0, 114.0, 0.0, 0.0, 0.0], [105.0, 114.0, 151.0, 0.0, 0.0, 0.0], [0.0, 0.0, 0.0, 85.0, 0.0, 0.0], [0.0, 0.0, 0.0, 0.0, 38.0, 0.0], [0.0, 0.0, 0.0, 0.0, 0.0, 38.0]], 'homogeneous_poisson': 0.36, 'poisson_ratio': 0.36, 'universal_anisotropy': 1.39, 'elastic_tensor_original': [[212.31945118345251, 107.17530098312727, 107.17530098312727, 9.079841674703335e-05, 0.0, 0.0], [102.05615435507397, 150.76122086445397, 114.47721985288122, 0.00011199788194112216, 0.0, 0.0], [102.05615435287015, 114.47721985043658, 150.76122086122575, 0.00014076487706485494, 0.0, 0.0], [0.0, 0.8480167283068538, -0.847855125548689, 84.789502729846, 0.0, 0.0], [0.0, 0.0, 0.0, 0.0, 37.5640335605724, 1.590002736939496e-05], [0.0, 0.0, 0.0, 0.0, 1.9897154730588835e-05, 37.56403356054017]], 'compliance_tensor': [[7.7, -3.0, -3.0, 0.0, 0.0, 0.0], [-3.0, 16.9, -10.7, 0.0, 0.0, 0.0], [-3.0, -10.7, 16.9, -0.0, 0.0, 0.0], [0.0, 0.0, -0.0, 11.8, 0.0, 0.0], [0.0, 0.0, 0.0, 0.0, 26.6, -0.0], [0.0, 0.0, 0.0, 0.0, -0.0, 26.6]], 'warnings': [], 'nsites': 6}",0.0,40.0,128.0,1.39,0.36,108.79999999999998
69,mp-561428,NiF3,"{'Ni': 1.0, 'F': 3.0}",0.13144994114198627,4.13924662685445,"{'G_Reuss': 32.0, 'G_VRH': 40.0, 'G_Voigt': 48.0, 'G_Voigt_Reuss_Hill': 40.0, 'K_Reuss': 39.0, 'K_VRH': 44.0, 'K_Voigt': 48.0, 'K_Voigt_Reuss_Hill': 44.0, 'elastic_anisotropy': 2.75, 'elastic_tensor': [[82.0, -4.0, 38.0, -29.0, 0.0, 0.0], [-4.0, 82.0, 38.0, 29.0, 0.0, 0.0], [38.0, 38.0, 122.0, 0.0, 0.0, 0.0], [-29.0, 29.0, 0.0, 63.0, 0.0, 0.0], [0.0, 0.0, 0.0, 0.0, 63.0, -29.0], [0.0, 0.0, 0.0, 0.0, -29.0, 43.0]], 'homogeneous_poisson': 0.15, 'poisson_ratio': 0.15, 'universal_anisotropy': 2.75, 'elastic_tensor_original': [[82.32065627720222, -3.667172236178206, 37.361895029661795, 30.204439489613133, 0.0, 0.0], [-3.9251987901765544, 82.62838009812234, 37.16804704437575, -29.171636570068593, 0.0, 0.0], [38.800139680013274, 38.80013020228603, 122.26608650739654, 0.0, 0.0, 0.0], [28.475936353537232, -29.21007072529936, -0.018296011414493503, 62.88862683250122, 0.0, 0.0], [-0.08456173310138888, -0.08095427714416643, -0.07166589386582219, -0.041233797717989344, 62.85090125349862, 28.84908151779093], [0.045820874707623326, 0.10126314872694737, 0.06412846447742027, 0.026905492053112313, 29.026256117073235, 42.934835255126956]], 'compliance_tensor': [[17.5, 0.6, -5.7, 7.8, -0.0, -0.0], [0.6, 17.5, -5.7, -7.8, -0.0, -0.0], [-5.7, -5.7, 11.7, 0.0, -0.0, 0.0], [7.8, -7.8, 0.0, 23.2, -0.0, -0.0], [0.0, -0.0, -0.0, -0.0, 23.2, 15.7], [-0.0, -0.0, 0.0, -0.0, 15.7, 33.8]], 'warnings': [], 'nsites': 8}",0.0,40.0,44.0,2.75,0.15,92.0
70,mp-567314,ErNi,"{'Er': 1.0, 'Ni': 1.0}",0.1627438096652533,9.731601367915884,"{'G_Reuss': 24.0, 'G_VRH': 26.0, 'G_Voigt': 28.0, 'G_Voigt_Reuss_Hill': 26.0, 'K_Reuss': 89.0, 'K_VRH': 90.0, 'K_Voigt': 91.0, 'K_Voigt_Reuss_Hill': 90.0, 'elastic_anisotropy': 0.77, 'elastic_tensor': [[125.0, 62.0, 89.0, 0.0, 0.0, 0.0], [62.0, 110.0, 81.0, 0.0, 0.0, 0.0], [89.0, 81.0, 120.0, 0.0, 0.0, 0.0], [0.0, 0.0, 0.0, 29.0, 0.0, 0.0], [0.0, 0.0, 0.0, 0.0, 37.0, 0.0], [0.0, 0.0, 0.0, 0.0, 0.0, 32.0]], 'homogeneous_poisson': 0.37, 'poisson_ratio': 0.37, 'universal_anisotropy': 0.77, 'elastic_tensor_original': [[125.16271444700475, 66.0330795471505, 91.74440124094832, 0.0, 0.0, 0.0], [58.49694926540687, 110.14354536680501, 81.04297742832533, 0.0, 0.0, 0.0], [86.28854951653646, 81.7838799400423, 119.93787579640588, 0.0, 0.0, 0.0], [0.0, 0.0, 0.0, 29.446087779824925, 0.0, 0.0], [0.0, 0.0, 0.0, 0.0, 37.131387831436896, 0.0], [0.0, 0.0, 0.0, 0.0, 0.0, 31.960632293942016]], 'compliance_tensor': [[16.9, -0.6, -12.2, 0.0, 0.0, 0.0], [-0.6, 18.2, -12.0, 0.0, 0.0, 0.0], [-12.2, -12.0, 25.5, 0.0, 0.0, 0.0], [0.0, 0.0, 0.0, 34.0, 0.0, 0.0], [0.0, 0.0, 0.0, 0.0, 26.9, 0.0], [0.0, 0.0, 0.0, 0.0, 0.0, 31.3]], 'warnings': ['Contains a rare earth element'], 'nsites': 8}",0.0,26.0,90.0,0.77,0.37,71.24000000000001
71,mp-569196,YNi3,"{'Y': 1.0, 'Ni': 3.0}",0.16935675716469137,7.600999368059543,"{'G_Reuss': 51.0, 'G_VRH': 52.0, 'G_Voigt': 53.0, 'G_Voigt_Reuss_Hill': 52.0, 'K_Reuss': 132.0, 'K_VRH': 132.0, 'K_Voigt': 132.0, 'K_Voigt_Reuss_Hill': 132.0, 'elastic_anisotropy': 0.19, 'elastic_tensor': [[204.0, 106.0, 89.0, 9.0, 0.0, 0.0], [106.0, 204.0, 89.0, -9.0, 0.0, 0.0], [89.0, 89.0, 214.0, 0.0, 0.0, 0.0], [9.0, -9.0, 0.0, 51.0, 0.0, 0.0], [0.0, 0.0, 0.0, 0.0, 51.0, 9.0], [0.0, 0.0, 0.0, 0.0, 9.0, 49.0]], 'homogeneous_poisson': 0.33, 'poisson_ratio': 0.33, 'universal_anisotropy': 0.19, 'elastic_tensor_original': [[204.2201308592958, 105.24774376084014, 90.41717078928751, -9.218395666041015, 0.0, 0.0], [105.01659062230704, 204.2803053054932, 90.39834227389854, 8.982980011057744, 0.0, 0.0], [86.7905579389238, 86.79056211844053, 214.43537604790265, 0.0, 0.0, 0.0], [-8.693670883699786, 10.062128418916672, -0.013667170476406358, 51.28374518650374, 0.0, 0.0], [0.045040768497682425, 0.06505592805648878, 0.03671186284356554, -0.01886132018575747, 51.34447832202735, -9.344163715546914], [-0.07466239292550655, -0.024805452784237833, -0.02222466001699022, -0.01334626988406837, -8.77635852232926, 48.747537816214084]], 'compliance_tensor': [[7.4, -3.1, -1.7, -1.9, 0.0, -0.0], [-3.1, 7.4, -1.7, 1.9, 0.0, -0.0], [-1.7, -1.7, 6.1, 0.0, -0.0, 0.0], [-1.9, 1.9, 0.0, 20.2, -0.0, 0.0], [0.0, 0.0, -0.0, -0.0, 20.2, -3.8], [-0.0, -0.0, 0.0, 0.0, -3.8, 21.0]], 'warnings': [], 'nsites': 12}",0.0,52.0,132.0,0.19,0.33,138.32
72,mp-570491,TaNi3,"{'Ta': 1.0, 'Ni': 3.0}",0.15025042264074678,12.034614334829557,"{'G_Reuss': 91.0, 'G_VRH': 96.0, 'G_Voigt': 102.0, 'G_Voigt_Reuss_Hill': 96.0, 'K_Reuss': 222.0, 'K_VRH': 222.0, 'K_Voigt': 222.0, 'K_Voigt_Reuss_Hill': 222.0, 'elastic_anisotropy': 0.56, 'elastic_tensor': [[303.0, 194.0, 167.0, 0.0, 0.0, 0.0], [194.0, 303.0, 167.0, 0.0, 0.0, 0.0], [167.0, 167.0, 334.0, 0.0, 0.0, 0.0], [0.0, 0.0, 0.0, 121.0, 0.0, 0.0], [0.0, 0.0, 0.0, 0.0, 121.0, 0.0], [0.0, 0.0, 0.0, 0.0, 0.0, 129.0]], 'homogeneous_poisson': 0.31, 'poisson_ratio': 0.31, 'universal_anisotropy': 0.56, 'elastic_tensor_original': [[303.34701369359544, 194.4000405129819, 163.59836038057927, -0.02683982969555087, 0.043176812657891715, -0.11909494231607963], [193.9948381442336, 303.22509871892765, 163.28783963598494, 0.009483887786787677, -0.03467797102914837, -0.11574099344141241], [170.54838870301205, 170.52824340688647, 333.77253380594857, 0.04442136868401813, 0.13586029660801066, 0.2156363598174951], [0.9202566835028207, 0.9139192671308588, 0.9181421937166773, 120.68792864847639, 0.011910562069540128, 0.033920125447867266], [0.6084404258788868, 0.5231076830468244, 0.5995798445103241, 0.0005224536785951897, 120.70741975386488, -0.0002686925170232975], [-0.5194548765186451, -0.4258838482434415, -0.20855403805751804, 0.02730036881698071, -0.02354702158824027, 129.00524702695822]], 'compliance_tensor': [[6.1, -3.1, -1.5, -0.0, 0.0, -0.0], [-3.1, 6.1, -1.5, 0.0, -0.0, -0.0], [-1.5, -1.5, 4.5, 0.0, 0.0, 0.0], [-0.0, 0.0, 0.0, 8.3, -0.0, 0.0], [0.0, -0.0, 0.0, -0.0, 8.3, 0.0], [-0.0, -0.0, 0.0, 0.0, 0.0, 7.8]], 'warnings': [], 'nsites': 4}",0.0,96.0,222.0,0.56,0.31,251.52
73,mp-622209,Al3Ni,"{'Al': 3.0, 'Ni': 1.0}",0.09677457621240784,4.03433192703617,"{'G_Reuss': 65.0, 'G_VRH': 66.0, 'G_Voigt': 66.0, 'G_Voigt_Reuss_Hill': 66.0, 'K_Reuss': 113.0, 'K_VRH': 113.0, 'K_Voigt': 113.0, 'K_Voigt_Reuss_Hill': 113.0, 'elastic_anisotropy': 0.06, 'elastic_tensor': [[193.0, 79.0, 73.0, 0.0, 0.0, 0.0], [79.0, 202.0, 67.0, 0.0, 0.0, 0.0], [73.0, 67.0, 188.0, 0.0, 0.0, 0.0], [0.0, 0.0, 0.0, 79.0, 0.0, 0.0], [0.0, 0.0, 0.0, 0.0, 66.0, 0.0], [0.0, 0.0, 0.0, 0.0, 0.0, 64.0]], 'homogeneous_poisson': 0.26, 'poisson_ratio': 0.26, 'universal_anisotropy': 0.06, 'elastic_tensor_original': [[187.88881806416268, 74.16602449146215, 65.36676877735457, 0.0, 0.0, 0.0], [71.37251561187992, 192.89531010944194, 78.49995718546322, 0.0, 0.0, 0.0], [68.53470868359803, 79.06149152703179, 202.2669476981896, 0.0, 0.0, 0.0], [0.0013394886668551468, 0.0023184483970105675, 0.00140347193162441, 64.343026313795, 0.0, 0.0], [0.03605749608686033, 0.01917192443385651, 0.044716614946927635, 0.0, 79.31282988836504, 0.0], [0.5520887584742364, 0.5391021415118556, 0.5475895682432883, 0.0, 0.0, 65.55982531801314]], 'compliance_tensor': [[6.7, -2.0, -1.9, 0.0, 0.0, 0.0], [-2.0, 6.2, -1.4, 0.0, 0.0, -0.0], [-1.9, -1.4, 6.6, 0.0, 0.0, -0.0], [0.0, 0.0, 0.0, 12.6, 0.0, 0.0], [0.0, 0.0, 0.0, 0.0, 15.3, 0.0], [0.0, -0.0, -0.0, 0.0, 0.0, 15.5]], 'warnings': [], 'nsites': 16}",0.0,66.0,113.0,0.06,0.26,166.32
74,mp-656887,Ni3O4,"{'Ni': 3.0, 'O': 4.0}",0.5424076542879475,5.600675531991479,"{'G_Reuss': 77.0, 'G_VRH': 78.0, 'G_Voigt': 80.0, 'G_Voigt_Reuss_Hill': 78.0, 'K_Reuss': 144.0, 'K_VRH': 146.0, 'K_Voigt': 147.0, 'K_Voigt_Reuss_Hill': 146.0, 'elastic_anisotropy': 0.2, 'elastic_tensor': [[207.0, 97.0, 100.0, 0.0, 0.0, 0.0], [97.0, 249.0, 77.0, 0.0, 0.0, 0.0], [100.0, 77.0, 320.0, 0.0, 0.0, 0.0], [0.0, 0.0, 0.0, 77.0, 0.0, 0.0], [0.0, 0.0, 0.0, 0.0, 73.0, 0.0], [0.0, 0.0, 0.0, 0.0, 0.0, 81.0]], 'homogeneous_poisson': 0.27, 'poisson_ratio': 0.27, 'universal_anisotropy': 0.2, 'elastic_tensor_original': [[207.213352907315, 98.64511011275617, 98.3884602632371, 0.0, 0.0, 0.0], [94.79635482256563, 249.3240022154583, 73.82464956954159, 0.0, 0.0, 0.0], [102.58496165909668, 79.39518020503861, 320.23001285854036, 0.0, 0.0, 0.0], [-4.903335032849177e-06, -0.00012946671154446198, -8.721003023023512e-05, 77.05164848564543, 0.0, 0.0], [9.138032210874515e-05, 0.0003222337020503178, 0.00012640029880592007, 0.0, 72.69045880720073, 0.0], [0.0004254214504292742, 0.0003563478854906215, 0.00035641797867388964, 0.0, 0.0, 80.89964502300532]], 'compliance_tensor': [[6.5, -2.1, -1.6, 0.0, 0.0, -0.0], [-2.1, 5.0, -0.5, 0.0, 0.0, -0.0], [-1.6, -0.5, 3.7, 0.0, 0.0, 0.0], [0.0, 0.0, 0.0, 13.0, 0.0, 0.0], [0.0, 0.0, 0.0, 0.0, 13.8, 0.0], [-0.0, -0.0, 0.0, 0.0, 0.0, 12.4]], 'warnings': [], 'nsites': 14}",0.0,78.0,146.0,0.2,0.27,198.12
75,mp-672371,Ni3Sb,"{'Ni': 3.0, 'Sb': 1.0}",0.14569115808001593,9.62367399219481,"{'G_Reuss': 48.0, 'G_VRH': 49.0, 'G_Voigt': 51.0, 'G_Voigt_Reuss_Hill': 49.0, 'K_Reuss': 165.0, 'K_VRH': 165.0, 'K_Voigt': 165.0, 'K_Voigt_Reuss_Hill': 165.0, 'elastic_anisotropy': 0.28, 'elastic_tensor': [[223.0, 140.0, 125.0, 0.0, 0.0, 0.0], [140.0, 241.0, 122.0, 0.0, 0.0, 0.0], [125.0, 122.0, 249.0, 0.0, 0.0, 0.0], [0.0, 0.0, 0.0, 56.0, 0.0, 0.0], [0.0, 0.0, 0.0, 0.0, 33.0, 0.0], [0.0, 0.0, 0.0, 0.0, 0.0, 57.0]], 'homogeneous_poisson': 0.36, 'poisson_ratio': 0.36, 'universal_anisotropy': 0.28, 'elastic_tensor_original': [[248.7267569977871, 124.46062403008052, 119.46805211365606, 0.0, 0.0, 0.0], [125.76771769016419, 222.52200303379897, 139.20348003640552, 0.0, 0.0, 0.0], [124.68543783374955, 140.66885548503134, 240.85375174939495, 0.0, 0.0, 0.0], [-0.00034911719119341865, -0.0001751239844600979, 0.0005227497925743332, 57.0625455449403, 0.0, 0.0], [-0.0007511227687874319, -4.689996474855432e-06, -0.001288969031210111, 0.0, 55.99119676694341, 0.0], [-0.0015330987992662626, -0.000600526196331473, -0.0005335129154824725, 0.0, 0.0, 32.79092397794171]], 'compliance_tensor': [[8.0, -3.5, -2.3, 0.0, 0.0, 0.0], [-3.5, 7.0, -1.7, 0.0, 0.0, 0.0], [-2.3, -1.7, 6.0, 0.0, 0.0, 0.0], [0.0, 0.0, 0.0, 17.9, 0.0, 0.0], [0.0, 0.0, 0.0, 0.0, 30.5, 0.0], [0.0, 0.0, 0.0, 0.0, 0.0, 17.5]], 'warnings': [], 'nsites': 8}",0.78498249999992,49.0,165.0,0.28,0.36,133.28
76,mp-673,HoNi2,"{'Ho': 1.0, 'Ni': 2.0}",0.17920168634673503,10.345716151637612,"{'G_Reuss': 40.0, 'G_VRH': 42.0, 'G_Voigt': 44.0, 'G_Voigt_Reuss_Hill': 42.0, 'K_Reuss': 103.0, 'K_VRH': 103.0, 'K_Voigt': 103.0, 'K_Voigt_Reuss_Hill': 103.0, 'elastic_anisotropy': 0.47, 'elastic_tensor': [[141.0, 84.0, 84.0, 0.0, 0.0, 0.0], [84.0, 141.0, 84.0, 0.0, 0.0, 0.0], [84.0, 84.0, 141.0, 0.0, 0.0, 0.0], [0.0, 0.0, 0.0, 53.0, 0.0, 0.0], [0.0, 0.0, 0.0, 0.0, 53.0, 0.0], [0.0, 0.0, 0.0, 0.0, 0.0, 53.0]], 'homogeneous_poisson': 0.32, 'poisson_ratio': 0.32, 'universal_anisotropy': 0.47, 'elastic_tensor_original': [[141.31867928829317, 83.70381710621827, 83.70381710621827, 0.0, 0.0, 0.0], [83.70381710621827, 141.31867928829317, 83.70381710621827, 0.0, 0.0, 0.0], [83.70381710621827, 83.70381710621827, 141.31867928829317, 0.0, 0.0, 0.0], [0.0, 0.0, 0.0, 53.33781725642073, 0.0, 0.0], [0.0, 0.0, 0.0, 0.0, 53.33781725642073, 0.0], [0.0, 0.0, 0.0, 0.0, 0.0, 53.33781725642073]], 'compliance_tensor': [[12.7, -4.7, -4.7, -0.0, 0.0, 0.0], [-4.7, 12.7, -4.7, 0.0, -0.0, -0.0], [-4.7, -4.7, 12.7, 0.0, 0.0, 0.0], [-0.0, 0.0, 0.0, 18.7, 0.0, 0.0], [0.0, -0.0, 0.0, 0.0, 18.7, 0.0], [0.0, -0.0, 0.0, 0.0, 0.0, 18.7]], 'warnings': ['Contains a rare earth element'], 'nsites': 6}",0.0,42.0,103.0,0.47,0.32,110.88000000000001
77,mp-7226,V3Ni,"{'V': 3.0, 'Ni': 1.0}",0.14934679874505263,6.898754805558572,"{'G_Reuss': 90.0, 'G_VRH': 93.0, 'G_Voigt': 96.0, 'G_Voigt_Reuss_Hill': 93.0, 'K_Reuss': 201.0, 'K_VRH': 201.0, 'K_Voigt': 201.0, 'K_Voigt_Reuss_Hill': 201.0, 'elastic_anisotropy': 0.32, 'elastic_tensor': [[369.0, 117.0, 117.0, 0.0, 0.0, 0.0], [117.0, 369.0, 117.0, 0.0, 0.0, 0.0], [117.0, 117.0, 369.0, 0.0, 0.0, 0.0], [0.0, 0.0, 0.0, 75.0, 0.0, 0.0], [0.0, 0.0, 0.0, 0.0, 75.0, 0.0], [0.0, 0.0, 0.0, 0.0, 0.0, 75.0]], 'homogeneous_poisson': 0.3, 'poisson_ratio': 0.3, 'universal_anisotropy': 0.32, 'elastic_tensor_original': [[368.5444126800418, 116.50580430071068, 116.50580430071068, 0.0, 0.0, 0.0], [116.5255188991164, 368.56950843191186, 116.5255188991164, 0.0, 0.0, 0.0], [116.50788898441051, 116.50788898441051, 368.5474445325564, 0.0, 0.0, 0.0], [-0.0032932330325982162, -0.005407766172834185, -0.0013194965461712507, 75.33529903045611, 0.0, 0.0], [-0.009817275770162861, -0.008205269250702954, -0.007500212648421141, 0.0, 75.3351757938007, 0.0], [-0.016449885164479407, -0.028309417414812188, -0.022477177947406297, 0.0, 0.0, 75.33348707395491]], 'compliance_tensor': [[3.2, -0.8, -0.8, 0.0, -0.0, 0.0], [-0.8, 3.2, -0.8, 0.0, 0.0, -0.0], [-0.8, -0.8, 3.2, -0.0, 0.0, 0.0], [0.0, 0.0, -0.0, 13.3, -0.0, -0.0], [-0.0, 0.0, 0.0, -0.0, 13.3, -0.0], [0.0, -0.0, 0.0, -0.0, -0.0, 13.3]], 'warnings': [], 'nsites': 8}",0.0,93.0,201.0,0.32,0.3,241.8
78,mp-784631,CrNi2,"{'Cr': 1.0, 'Ni': 2.0}",0.21068808361646363,8.62090716505294,"{'G_Reuss': 102.0, 'G_VRH': 112.0, 'G_Voigt': 123.0, 'G_Voigt_Reuss_Hill': 112.0, 'K_Reuss': 228.0, 'K_VRH': 228.0, 'K_Voigt': 228.0, 'K_Voigt_Reuss_Hill': 228.0, 'elastic_anisotropy': 1.06, 'elastic_tensor': [[325.0, 176.0, 194.0, 0.0, 0.0, 0.0], [176.0, 429.0, 84.0, 0.0, 0.0, 0.0], [194.0, 84.0, 394.0, 0.0, 0.0, 0.0], [0.0, 0.0, 0.0, 65.0, 0.0, 0.0], [0.0, 0.0, 0.0, 0.0, 155.0, 0.0], [0.0, 0.0, 0.0, 0.0, 0.0, 165.0]], 'homogeneous_poisson': 0.29, 'poisson_ratio': 0.29, 'universal_anisotropy': 1.06, 'elastic_tensor_original': [[394.3164052710373, 192.86421289284644, 81.4084172415275, 0.0, 0.0, 0.0], [195.92222986192652, 324.60145736503904, 176.4621504454533, 0.0, 0.0, 0.0], [85.87617197477141, 175.13689202919937, 428.73188670191547, 0.0, 0.0, 0.0], [0.0008664388135136611, 0.0005809058711790307, 0.0004673226933895378, 165.1631725283788, 0.0, 0.0], [0.00027852435981420533, 0.00019856525265209198, 0.0004337899740322699, 0.0, 64.51318107457563, 0.0], [0.0011182098692831463, 0.0008096102197777797, 0.0011587767232232127, 0.0, 0.0, 155.27864513993484]], 'compliance_tensor': [[5.4, -1.8, -2.3, 0.0, 0.0, 0.0], [-1.8, 3.0, 0.2, 0.0, -0.0, 0.0], [-2.3, 0.2, 3.6, 0.0, 0.0, 0.0], [0.0, 0.0, 0.0, 15.5, 0.0, 0.0], [0.0, -0.0, 0.0, 0.0, 6.4, 0.0], [0.0, 0.0, 0.0, 0.0, 0.0, 6.1]], 'warnings': [], 'nsites': 3}",0.0,112.0,228.0,1.06,0.29,288.96000000000004