,mp_id,Formula,Composition,IPF,Density,Elastic_Tensor,E_above_Hull,G_VRH,K_VRH,Elastic_Anisotropy,poisson_ratio,Y_Modulus
276,mp-8311,Si3NiP4,"{'Si': 3.0, 'Ni': 1.0, 'P': 4.0}",0.045779610950166263,3.1382893966635823,"{'G_Reuss': 59.0, 'G_VRH': 61.0, 'G_Voigt': 63.0, 'G_Voigt_Reuss_Hill': 61.0, 'K_Reuss': 105.0, 'K_VRH': 105.0, 'K_Voigt': 105.0, 'K_Voigt_Reuss_Hill': 105.0, 'elastic_anisotropy': 0.35, 'elastic_tensor': [[165.0, 75.0, 75.0, 0.0, 0.0, 0.0], [75.0, 165.0, 75.0, 0.0, 0.0, 0.0], [75.0, 75.0, 162.0, 0.0, 0.0, 0.0], [0.0, 0.0, 0.0, 77.0, 0.0, 0.0], [0.0, 0.0, 0.0, 0.0, 77.0, 0.0], [0.0, 0.0, 0.0, 0.0, 0.0, 75.0]], 'homogeneous_poisson': 0.26, 'poisson_ratio': 0.26, 'universal_anisotropy': 0.35, 'elastic_tensor_original': [[165.3107662625336, 75.30213107308668, 76.75114924793762, 0.0, 0.0, 0.0], [75.29989476710497, 165.30819608325032, 76.74989192308611, 0.0, 0.0, 0.0], [73.25668040077908, 73.25668040077908, 162.10538769292495, 0.0, 0.0, 0.0], [0.009651114727200155, 0.009619818045205192, 0.009629211383138613, 76.64226619338623, 0.0, 0.0], [-0.3158575747098047, -0.3173464754390819, -0.3172914287454529, 0.0, 76.63332489234007, 0.0], [5.470335728967451e-05, 5.614002458438555e-05, 5.7740025284633056e-05, 0.0, 0.0, 74.86853352597592]], 'compliance_tensor': [[8.5, -2.6, -2.7, -0.0, 0.0, 0.0], [-2.6, 8.5, -2.7, 0.0, 0.0, 0.0], [-2.7, -2.7, 8.7, 0.0, 0.0, 0.0], [-0.0, 0.0, 0.0, 13.0, 0.0, 0.0], [0.0, 0.0, 0.0, 0.0, 13.0, 0.0], [0.0, 0.0, 0.0, 0.0, 0.0, 13.4]], 'warnings': [], 'nsites': 8}",0.0,61.0,105.0,0.35,0.26,153.72
277,mp-862368,Sc2NiPt,"{'Sc': 2.0, 'Ni': 1.0, 'Pt': 1.0}",0.1416244133086789,8.341665456677655,"{'G_Reuss': 46.0, 'G_VRH': 46.0, 'G_Voigt': 46.0, 'G_Voigt_Reuss_Hill': 46.0, 'K_Reuss': 125.0, 'K_VRH': 125.0, 'K_Voigt': 125.0, 'K_Voigt_Reuss_Hill': 125.0, 'elastic_anisotropy': 0.09, 'elastic_tensor': [[177.0, 99.0, 99.0, 0.0, 0.0, 0.0], [99.0, 177.0, 99.0, 0.0, 0.0, 0.0], [99.0, 99.0, 177.0, 0.0, 0.0, 0.0], [0.0, 0.0, 0.0, 51.0, 0.0, 0.0], [0.0, 0.0, 0.0, 0.0, 51.0, 0.0], [0.0, 0.0, 0.0, 0.0, 0.0, 51.0]], 'homogeneous_poisson': 0.34, 'poisson_ratio': 0.34, 'universal_anisotropy': 0.09, 'elastic_tensor_original': [[176.60329768593323, 98.31485648313478, 98.31485648313478, 0.0, 0.0, 0.0], [99.59871598979142, 177.87442201247717, 99.59871598979142, 0.0, 0.0, 0.0], [99.7313742385545, 99.7313742385545, 178.00993955933632, 0.0, 0.0, 0.0], [0.011452246306125232, 0.01280950586834596, 0.012620992595816961, 51.25890627331374, 0.0, 0.0], [-0.013182472414712666, -0.011860692841048107, -0.013024989132175584, 0.0, 51.25860396007791, 0.0], [0.010616453242373728, 0.010639899901476936, 0.009902086806122588, 0.0, 0.0, 51.25502631789855]], 'compliance_tensor': [[9.4, -3.4, -3.4, -0.0, -0.0, 0.0], [-3.4, 9.4, -3.4, 0.0, -0.0, -0.0], [-3.4, -3.4, 9.4, -0.0, 0.0, -0.0], [-0.0, 0.0, -0.0, 19.5, -0.0, -0.0], [-0.0, -0.0, 0.0, -0.0, 19.5, -0.0], [0.0, -0.0, -0.0, -0.0, -0.0, 19.5]], 'warnings': [], 'nsites': 4}",0.0,46.0,125.0,0.09,0.34,123.28
278,mp-864895,Be2NiRh,"{'Be': 2.0, 'Ni': 1.0, 'Rh': 1.0}",0.13072979787201308,7.571426864987973,"{'G_Reuss': 107.0, 'G_VRH': 107.0, 'G_Voigt': 107.0, 'G_Voigt_Reuss_Hill': 107.0, 'K_Reuss': 194.0, 'K_VRH': 194.0, 'K_Voigt': 194.0, 'K_Voigt_Reuss_Hill': 194.0, 'elastic_anisotropy': 0.0, 'elastic_tensor': [[341.0, 120.0, 120.0, 0.0, 0.0, 0.0], [120.0, 341.0, 120.0, 0.0, 0.0, 0.0], [120.0, 120.0, 341.0, 0.0, 0.0, 0.0], [0.0, 0.0, 0.0, 105.0, 0.0, 0.0], [0.0, 0.0, 0.0, 0.0, 105.0, 0.0], [0.0, 0.0, 0.0, 0.0, 0.0, 105.0]], 'homogeneous_poisson': 0.27, 'poisson_ratio': 0.27, 'universal_anisotropy': 0.0, 'elastic_tensor_original': [[340.2697599833979, 119.84661631068595, 119.84661631068595, 0.0, 0.0, 0.0], [119.82671502478019, 340.2487021842104, 119.82671502478019, 0.0, 0.0, 0.0], [120.77190427001597, 120.76996154438584, 341.3458208485699, -9.420363961417581e-05, -0.00024835686352326866, 3.219921099900037e-05], [0.0007289324420092387, 0.0007538824114996783, 0.000780485712301766, 105.48095503299362, 0.0, 0.0], [-0.0009283355315134796, -0.0012757617733517206, -0.0010055754370660369, 0.0, 105.481503735656, 0.0], [0.0010972553249627402, 0.0010943119952269492, 0.0011852485506992736, 0.0, 0.0, 105.48280372406637]], 'compliance_tensor': [[3.6, -0.9, -0.9, 0.0, 0.0, -0.0], [-0.9, 3.6, -0.9, -0.0, 0.0, 0.0], [-0.9, -0.9, 3.6, -0.0, -0.0, 0.0], [0.0, -0.0, -0.0, 9.5, -0.0, -0.0], [0.0, 0.0, -0.0, -0.0, 9.5, -0.0], [-0.0, 0.0, 0.0, -0.0, -0.0, 9.5]], 'warnings': [], 'nsites': 4}",0.0,107.0,194.0,0.0,0.27,271.78000000000003
279,mp-865229,Be2NiIr,"{'Be': 2.0, 'Ni': 1.0, 'Ir': 1.0}",0.1326313611017529,11.189658735701114,"{'G_Reuss': 114.0, 'G_VRH': 114.0, 'G_Voigt': 114.0, 'G_Voigt_Reuss_Hill': 114.0, 'K_Reuss': 216.0, 'K_VRH': 216.0, 'K_Voigt': 216.0, 'K_Voigt_Reuss_Hill': 216.0, 'elastic_anisotropy': 0.0, 'elastic_tensor': [[371.0, 139.0, 139.0, 0.0, 0.0, 0.0], [139.0, 371.0, 139.0, 0.0, 0.0, 0.0], [139.0, 139.0, 371.0, 0.0, 0.0, 0.0], [0.0, 0.0, 0.0, 113.0, 0.0, 0.0], [0.0, 0.0, 0.0, 0.0, 113.0, 0.0], [0.0, 0.0, 0.0, 0.0, 0.0, 113.0]], 'homogeneous_poisson': 0.27, 'poisson_ratio': 0.27, 'universal_anisotropy': 0.0, 'elastic_tensor_original': [[370.63566801374316, 138.35032764276278, 138.35032764276278, 0.0, 0.0, 0.0], [138.26418787023636, 370.5445948798164, 138.26423880968912, 0.0, 0.0, 0.0], [139.75941416466006, 139.75658407651065, 371.2625813890162, 0.00012041876194148351, 3.328257489558153e-05, 0.00010085021188239464], [-5.9522256519253915e-05, -6.693485475200883e-05, -2.9101659990955372e-05, 113.45639798812492, 0.0, 0.0], [-6.458986009586626e-05, -5.675420824052984e-05, -3.7691875133192416e-05, 0.0, 113.45636401794754, 0.0], [-0.00018460206420468735, -0.0001023138028514838, -0.00012169910163637743, 0.0, 0.0, 113.45899889112809]], 'compliance_tensor': [[3.4, -0.9, -0.9, -0.0, -0.0, -0.0], [-0.9, 3.4, -0.9, 0.0, 0.0, -0.0], [-0.9, -0.9, 3.4, 0.0, -0.0, 0.0], [-0.0, 0.0, 0.0, 8.8, -0.0, -0.0], [-0.0, 0.0, -0.0, -0.0, 8.8, 0.0], [-0.0, -0.0, 0.0, -0.0, 0.0, 8.8]], 'warnings': [], 'nsites': 4}",0.0,114.0,216.0,0.0,0.27,289.56
280,mp-867812,LiAlNi2,"{'Li': 1.0, 'Al': 1.0, 'Ni': 2.0}",0.16832507416775522,5.466499821129769,"{'G_Reuss': -111.0, 'G_VRH': -33.0, 'G_Voigt': 45.0, 'G_Voigt_Reuss_Hill': -33.0, 'K_Reuss': 120.0, 'K_VRH': 120.0, 'K_Voigt': 120.0, 'K_Voigt_Reuss_Hill': 120.0, 'elastic_anisotropy': -7.03, 'elastic_tensor': [[86.0, 138.0, 138.0, 0.0, 0.0, 0.0], [138.0, 86.0, 138.0, 0.0, 0.0, 0.0], [138.0, 138.0, 86.0, 0.0, 0.0, 0.0], [0.0, 0.0, 0.0, 92.0, 0.0, 0.0], [0.0, 0.0, 0.0, 0.0, 92.0, 0.0], [0.0, 0.0, 0.0, 0.0, 0.0, 92.0]], 'homogeneous_poisson': 0.65, 'poisson_ratio': 0.65, 'universal_anisotropy': -7.03, 'elastic_tensor_original': [[81.79308590057776, 136.98343102949508, 136.98333482521898, 0.0, 0.0, 0.0], [136.50642304467132, 105.23536462637227, 136.50632331742779, 1.0506046564675861e-05, 8.621374089333247e-06, 1.4796683902157992e-05], [139.30854456120184, 139.30864241317718, 70.91966946118568, 0.0, 0.0, 0.0], [0.055934397119037145, 0.048808277661760914, 0.03962954872429924, 92.39120264247568, 0.0, 0.0], [0.3555199244564623, 0.37405000717782105, 0.336222802757711, 0.0, 92.40361229790074, 0.0], [-0.2820728517133687, 0.2640375526063196, 0.024740711468629113, 0.274363662683871, -0.24480281085764083, 92.33065574669287]], 'compliance_tensor': [[-12.0, 7.4, 7.4, -0.0, -0.0, -0.0], [7.4, -12.0, 7.4, 0.0, 0.0, 0.0], [7.4, 7.4, -12.0, -0.0, 0.0, 0.0], [-0.0, 0.0, -0.0, 10.8, 0.0, 0.0], [-0.0, 0.0, 0.0, 0.0, 10.8, -0.0], [-0.0, 0.0, 0.0, 0.0, -0.0, 10.8]], 'warnings': ['Elastic tensor has a negative eigenvalue', 'c11 and c12 are within 5% or c12 is greater than c11', 'c11 and c13 are within 5% or c13 is greater than c11', 'c11 and c23 are within 5% or c23 is greater than c11', 'One or more K, G below 2 GPa'], 'nsites': 4}",0.0,-33.0,120.0,-7.03,0.65,-108.89999999999999
281,mp-9391,TaNi2Te3,"{'Ta': 1.0, 'Ni': 2.0, 'Te': 3.0}",0.2279667438663344,7.839498265329699,"{'G_Reuss': 5.0, 'G_VRH': 10.0, 'G_Voigt': 16.0, 'G_Voigt_Reuss_Hill': 10.0, 'K_Reuss': 8.0, 'K_VRH': 18.0, 'K_Voigt': 27.0, 'K_Voigt_Reuss_Hill': 18.0, 'elastic_anisotropy': 14.29, 'elastic_tensor': [[72.0, 26.0, 13.0, 0.0, -27.0, 0.0], [26.0, 63.0, 9.0, 0.0, -8.0, 0.0], [13.0, 9.0, 12.0, 0.0, -4.0, 0.0], [0.0, 0.0, 0.0, 7.0, 0.0, -10.0], [-27.0, -8.0, -4.0, 0.0, 13.0, 0.0], [0.0, 0.0, 0.0, -10.0, 0.0, 28.0]], 'homogeneous_poisson': 0.25, 'poisson_ratio': 0.25, 'universal_anisotropy': 14.29, 'elastic_tensor_original': [[63.13101520931839, 9.53487760641945, 26.51584969499772, -8.32839564635937, 0.0, 0.0], [9.0334525129027, 11.85454274166528, 12.088366101856577, -4.934950318647082, 0.0, 0.0], [25.86891751293021, 14.694759306921664, 71.4204990371579, -27.607477598691617, 0.0, 0.0], [-8.690769748636912, -4.575486075347197, -27.29448756550805, 13.686267466671163, 0.0, 0.0], [-0.16494514952104106, -0.14968072714842368, -0.16745266329202602, -0.016041548141857636, 27.347314425938205, -10.790631588959007], [-0.06712744413225323, -0.07231156827313216, -0.06294756885636744, -0.004084565383605392, -10.497502939007129, 7.309463768810361]], 'compliance_tensor': [[68.6, -8.8, -20.0, 0.0, 128.3, 0.0], [-8.8, 19.7, -8.9, 0.0, -8.7, 0.0], [-20.0, -8.9, 111.4, 0.0, -8.9, 0.0], [-0.0, -0.0, -0.0, 318.1, -0.0, 120.7], [128.3, -8.7, -8.9, 0.0, 329.8, 0.0], [0.0, 0.0, 0.0, 120.7, 0.0, 82.1]], 'warnings': [], 'nsites': 12}",0.0,10.0,18.0,14.29,0.25,25.0
282,mp-1018139,HoNiBi,"{'Ho': 1.0, 'Ni': 1.0, 'Bi': 1.0}",0.16381529198295236,10.633198380142911,"{'G_Reuss': 49.0, 'G_VRH': 50.0, 'G_Voigt': 50.0, 'G_Voigt_Reuss_Hill': 50.0, 'K_Reuss': 85.0, 'K_VRH': 85.0, 'K_Voigt': 85.0, 'K_Voigt_Reuss_Hill': 85.0, 'elastic_anisotropy': 0.13, 'elastic_tensor': [[166.0, 45.0, 45.0, 0.0, 0.0, 0.0], [45.0, 166.0, 45.0, 0.0, 0.0, 0.0], [45.0, 45.0, 166.0, 0.0, 0.0, 0.0], [0.0, 0.0, 0.0, 43.0, 0.0, 0.0], [0.0, 0.0, 0.0, 0.0, 43.0, 0.0], [0.0, 0.0, 0.0, 0.0, 0.0, 43.0]], 'homogeneous_poisson': 0.26, 'poisson_ratio': 0.26, 'universal_anisotropy': 0.13, 'elastic_tensor_original': [[166.31257933661095, 45.02280123299026, 45.02280123299026, 0.0, 0.0, 0.0], [45.02280123299026, 166.31257933661095, 45.02280123299026, 0.0, 0.0, 0.0], [45.02280123299026, 45.02280123299026, 166.31257933661095, 0.0, 0.0, 0.0], [0.0, 0.0, 0.0, 43.45495565305038, 0.0, 0.0], [0.0, 0.0, 0.0, 0.0, 43.45495565305038, 0.0], [0.0, 0.0, 0.0, 0.0, 0.0, 43.45495565305038]], 'compliance_tensor': [[6.8, -1.4, -1.4, -0.0, 0.0, -0.0], [-1.4, 6.8, -1.4, 0.0, -0.0, 0.0], [-1.4, -1.4, 6.8, 0.0, 0.0, 0.0], [-0.0, 0.0, 0.0, 23.0, 0.0, 0.0], [0.0, -0.0, 0.0, 0.0, 23.0, 0.0], [-0.0, 0.0, 0.0, 0.0, 0.0, 23.0]], 'warnings': ['Contains a rare earth element'], 'nsites': 3}",0.0,50.0,85.0,0.13,0.26,126.0
283,mp-1025263,Ti2NiS4,"{'Ti': 2.0, 'Ni': 1.0, 'S': 4.0}",0.1617990526589595,4.152401887128523,"{'G_Reuss': 53.0, 'G_VRH': 55.0, 'G_Voigt': 58.0, 'G_Voigt_Reuss_Hill': 55.0, 'K_Reuss': 81.0, 'K_VRH': 83.0, 'K_Voigt': 85.0, 'K_Voigt_Reuss_Hill': 83.0, 'elastic_anisotropy': 0.51, 'elastic_tensor': [[156.0, 49.0, 40.0, 0.0, -23.0, 0.0], [49.0, 185.0, 45.0, 0.0, -22.0, 0.0], [40.0, 45.0, 161.0, 0.0, -2.0, 0.0], [0.0, 0.0, 0.0, 64.0, 0.0, -18.0], [-23.0, -22.0, -2.0, 0.0, 56.0, 0.0], [0.0, 0.0, 0.0, -18.0, 0.0, 47.0]], 'homogeneous_poisson': 0.23, 'poisson_ratio': 0.23, 'universal_anisotropy': 0.51, 'elastic_tensor_original': [[155.98655874255437, 54.614381248115095, 41.158355503602905, 2.7999938707619255e-06, 31.51854240533105, 1.3799969791612346e-05], [43.79569652827437, 184.61476506676385, 45.68259968405085, 0.0, 30.83258327520956, 0.0], [38.13921961453105, 44.144268731720494, 160.743475290544, 8.000000422563687e-07, 9.259948889114742, 3.4000001795895667e-06], [0.0, 0.0, 0.0, 63.68832912053689, 0.0, 19.62125342920861], [13.826839696616863, 13.181100843002133, -4.841149145213512, 4.900017859780551e-06, 55.72190619742639, 1.2000043738238084e-06], [0.0, 0.0, 0.0, 15.321051105765168, 0.0, 47.13354600397909]], 'compliance_tensor': [[7.6, -1.4, -1.4, 0.0, 2.5, 0.0], [-1.4, 6.4, -1.4, 0.0, 1.9, 0.0], [-1.4, -1.4, 7.0, 0.0, -0.9, -0.0], [0.0, 0.0, 0.0, 17.5, 0.0, 6.5], [2.5, 1.9, -0.9, 0.0, 19.7, 0.0], [0.0, 0.0, -0.0, 6.5, 0.0, 23.6]], 'warnings': [], 'nsites': 7}",0.0,55.0,83.0,0.51,0.23,135.3
284,mp-11351,CeAlNi,"{'Ce': 1.0, 'Al': 1.0, 'Ni': 1.0}",0.14916266559776942,6.768834327369089,"{'G_Reuss': 44.0, 'G_VRH': 45.0, 'G_Voigt': 46.0, 'G_Voigt_Reuss_Hill': 45.0, 'K_Reuss': 96.0, 'K_VRH': 98.0, 'K_Voigt': 101.0, 'K_Voigt_Reuss_Hill': 98.0, 'elastic_anisotropy': 0.3, 'elastic_tensor': [[142.0, 53.0, 86.0, 0.0, 0.0, 0.0], [53.0, 142.0, 86.0, 0.0, 0.0, 0.0], [86.0, 86.0, 171.0, 0.0, 0.0, 0.0], [0.0, 0.0, 0.0, 54.0, 0.0, 0.0], [0.0, 0.0, 0.0, 0.0, 54.0, 0.0], [0.0, 0.0, 0.0, 0.0, 0.0, 45.0]], 'homogeneous_poisson': 0.3, 'poisson_ratio': 0.3, 'universal_anisotropy': 0.3, 'elastic_tensor_original': [[140.49243373084823, 50.39655949029828, 80.14154362962823, 0.0, 0.0, -4.199996207269374e-06], [55.1981584366868, 143.8954427863604, 83.94777850440977, 0.0, 0.0, -1.1999971311434703e-05], [90.93159657216252, 90.93162297170977, 170.53472142150508, 0.0, 0.0, -7.599869666334192e-06], [0.0, 0.0, 0.0, 53.99903576091816, -4.500054432791382e-06, 0.0], [0.0, 0.0, 0.0, 0.0, 53.13517702785567, 0.0], [-7.667786730382626e-06, 0.0, 0.0, 0.0, 0.0, 45.20559071873032]], 'compliance_tensor': [[10.22285406580684, -0.9001385453015293, -4.728093919464038, 0.0, 0.0, 1.7340037478373401e-06], [-0.9001385453015294, 10.222849727478945, -4.728092916220529, 0.0, 0.0, 1.7340033801559307e-06], [-4.728093919464039, -4.728092916220531, 10.659694116770495, 0.0, 0.0, -8.019807902997916e-07], [0.0, 0.0, 0.0, 18.668170862154028, 1.5832508654299375e-06, 0.0], [0.0, 0.0, 0.0, 1.5832508654299377e-06, 18.668174823311627, 0.0], [1.7340037468371452e-06, 1.7340033793755076e-06, -8.019807893967361e-07, 0.0, 0.0, 22.245980883888674]], 'warnings': ['Structure contains a rare earth element'], 'nsites': 9}",0.0,45.0,98.0,0.3,0.3,117.0
285,mp-11401,ScGa2Ni,"{'Sc': 1.0, 'Ga': 2.0, 'Ni': 1.0}",0.13177921090176045,6.42575964802672,"{'G_Reuss': 56.0, 'G_VRH': 60.0, 'G_Voigt': 64.0, 'G_Voigt_Reuss_Hill': 60.0, 'K_Reuss': 106.0, 'K_VRH': 107.0, 'K_Voigt': 107.0, 'K_Voigt_Reuss_Hill': 107.0, 'elastic_anisotropy': 0.64, 'elastic_tensor': [[161.0, 63.0, 99.0, 0.0, 0.0, 0.0], [63.0, 175.0, 57.0, 0.0, 0.0, 0.0], [99.0, 57.0, 190.0, 0.0, 0.0, 0.0], [0.0, 0.0, 0.0, 45.0, 0.0, 0.0], [0.0, 0.0, 0.0, 0.0, 98.0, 0.0], [0.0, 0.0, 0.0, 0.0, 0.0, 72.0]], 'homogeneous_poisson': 0.26, 'poisson_ratio': 0.26, 'universal_anisotropy': 0.64, 'elastic_tensor_original': [[190.04117219679992, 59.3874860183226, 97.91299200504923, 0.0, 0.0, 0.0], [54.99287203773796, 175.31825968335735, 59.66600869789258, 0.0, 0.0, 0.0], [99.42871305702607, 66.3503831365526, 160.6634860918439, 0.0, 0.0, 0.0], [0.23185152644956641, 0.24297498568960518, 0.240193440879233, 71.59906624338616, 0.0, 0.0], [-0.0033169455274861663, -0.003921008574697371, -0.003755605371898511, 0.0, 98.14213841568352, 0.0], [0.5146856085785972, 0.5122554069750488, 0.4912672844271866, 0.0, 0.0, 45.38230478554793]], 'compliance_tensor': [[9.8, -2.1, -4.5, 0.0, 0.0, 0.0], [-2.1, 6.8, -1.0, -0.0, 0.0, 0.0], [-4.5, -1.0, 7.9, -0.0, 0.0, 0.0], [0.0, -0.0, -0.0, 22.0, 0.0, 0.0], [0.0, 0.0, 0.0, 0.0, 10.2, 0.0], [0.0, 0.0, 0.0, 0.0, 0.0, 14.0]], 'warnings': [], 'nsites': 8}",0.0,60.0,107.0,0.64,0.26,151.2
286,mp-11444,YGa2Ni,"{'Y': 1.0, 'Ga': 2.0, 'Ni': 1.0}",0.14440949767402955,6.82406109534433,"{'G_Reuss': 46.0, 'G_VRH': 49.0, 'G_Voigt': 53.0, 'G_Voigt_Reuss_Hill': 49.0, 'K_Reuss': 90.0, 'K_VRH': 93.0, 'K_Voigt': 96.0, 'K_Voigt_Reuss_Hill': 93.0, 'elastic_anisotropy': 0.77, 'elastic_tensor': [[154.0, 42.0, 93.0, 0.0, 0.0, 0.0], [42.0, 132.0, 71.0, 0.0, 0.0, 0.0], [93.0, 71.0, 165.0, 0.0, 0.0, 0.0], [0.0, 0.0, 0.0, 41.0, 0.0, 0.0], [0.0, 0.0, 0.0, 0.0, 88.0, 0.0], [0.0, 0.0, 0.0, 0.0, 0.0, 51.0]], 'homogeneous_poisson': 0.28, 'poisson_ratio': 0.28, 'universal_anisotropy': 0.77, 'elastic_tensor_original': [[165.38996357888487, 71.56962825084697, 93.9406800462777, 0.0, 0.0, 0.0], [70.36387561608218, 132.0215714447625, 40.59694118839351, 0.0, 0.0, 0.0], [91.1399108095199, 42.73933827754599, 153.6284432367712, 0.0, 0.0, 0.0], [0.07611549950115098, 0.09065325009954453, 0.09604107475118928, 51.331235782132765, 0.0, 0.0], [-0.1984529828751026, -0.06798958366925353, -0.09692417294810371, 0.0, 88.05618645578956, 0.0], [0.010973216830184679, 0.027061904834647373, 0.017199695875570454, 0.0, 0.0, 41.20093662608556]], 'compliance_tensor': [[9.8, -0.2, -5.4, -0.0, 0.0, 0.0], [-0.2, 9.8, -4.1, 0.0, 0.0, 0.0], [-5.4, -4.1, 10.8, 0.0, 0.0, 0.0], [-0.0, 0.0, 0.0, 24.3, 0.0, 0.0], [0.0, 0.0, 0.0, 0.0, 11.4, 0.0], [0.0, 0.0, 0.0, 0.0, 0.0, 19.5]], 'warnings': [], 'nsites': 8}",0.0,49.0,93.0,0.77,0.28,125.44
287,mp-12965,ErNi4B,"{'Er': 1.0, 'Ni': 4.0, 'B': 1.0}",0.1587226114776164,9.335612084462625,"{'G_Reuss': 78.0, 'G_VRH': 78.0, 'G_Voigt': 78.0, 'G_Voigt_Reuss_Hill': 78.0, 'K_Reuss': 160.0, 'K_VRH': 160.0, 'K_Voigt': 160.0, 'K_Voigt_Reuss_Hill': 160.0, 'elastic_anisotropy': 0.02, 'elastic_tensor': [[272.0, 107.0, 104.0, 0.0, 0.0, 0.0], [107.0, 272.0, 104.0, 0.0, 0.0, 0.0], [104.0, 104.0, 263.0, 0.0, 0.0, 0.0], [0.0, 0.0, 0.0, 72.0, 0.0, 0.0], [0.0, 0.0, 0.0, 0.0, 72.0, 0.0], [0.0, 0.0, 0.0, 0.0, 0.0, 82.0]], 'homogeneous_poisson': 0.29, 'poisson_ratio': 0.29, 'universal_anisotropy': 0.02, 'elastic_tensor_original': [[268.4355669082284, 106.83163002110287, 113.72406548124002, 0.0, 0.0, -1.240012208659632e-05], [110.31945245596006, 272.03542256329547, 117.72825927862243, 0.0, 0.0, 0.0], [93.19463128093268, 93.19459228134053, 263.1351220445705, 0.0, 0.0, 0.0], [0.0, 0.0, 0.0, 71.21081789567046, 0.0, 0.0], [0.0, 0.0, 0.0, 0.0, 72.32592410691916, 0.0], [-1.9509338220926375e-07, 0.0, 0.0, 0.0, 0.0, 83.80650814300682]], 'compliance_tensor': [[4.726907465897589, -1.3470788873035457, -1.3417376422793574, 0.0, 0.0, 1.1003780786856269e-08], [-1.3470788873035455, 4.726910331270603, -1.3417380489488646, 0.0, 0.0, 1.1003784962701768e-08], [-1.3417376422793572, -1.3417380489488648, 4.8656253102432006, 0.0, 0.0, -3.123434743552419e-09], [0.0, 0.0, 0.0, 13.933716744178277, 1.6218164543944888e-08, 0.0], [0.0, 0.0, 0.0, 1.6218164543944888e-08, 13.933712520986054, 0.0], [1.1003780612094403e-08, 1.1003785137463714e-08, -3.123434743552428e-09, 0.0, 0.0, 12.147975571774845]], 'warnings': ['Structure contains a rare earth element'], 'nsites': 12}",0.0,78.0,160.0,0.02,0.29,201.24
288,mp-19019,NiMoO4,"{'Ni': 1.0, 'Mo': 1.0, 'O': 4.0}",0.5587630029204516,5.458432399166019,"{'G_Reuss': 49.0, 'G_VRH': 57.0, 'G_Voigt': 64.0, 'G_Voigt_Reuss_Hill': 57.0, 'K_Reuss': 146.0, 'K_VRH': 147.0, 'K_Voigt': 148.0, 'K_Voigt_Reuss_Hill': 147.0, 'elastic_anisotropy': 1.5, 'elastic_tensor': [[279.0, 104.0, 104.0, 0.0, 25.0, 0.0], [104.0, 222.0, 106.0, 0.0, -4.0, 0.0], [104.0, 106.0, 209.0, 0.0, 8.0, 0.0], [0.0, 0.0, 0.0, 36.0, 0.0, -25.0], [25.0, -4.0, 8.0, 0.0, 81.0, 0.0], [0.0, 0.0, 0.0, -25.0, 0.0, 71.0]], 'homogeneous_poisson': 0.33, 'poisson_ratio': 0.33, 'universal_anisotropy': 1.5, 'elastic_tensor_original': [[221.615712335381, 106.8549622504038, 104.71988327493926, -3.706448681291323, 0.0, 0.0], [104.63514029376701, 208.8869097896524, 104.51212283035414, 7.4204882470282945, 0.0, 0.0], [102.37825261966964, 103.32141561987234, 278.9239107247593, 24.96341372468395, 0.0, 0.0], [-3.383525348449439, 8.879569451828242, 25.942596661755513, 81.30965382025431, 0.0, 0.0], [-2.0330512348931286e-07, -8.893261514637705e-06, 8.031358062373487e-05, -9.470351353695579e-05, 70.51073428161986, -26.19357242865849], [-2.772659595655158e-05, -2.8109947918412944e-05, -5.783298091822237e-06, 1.6560040219282448e-05, -24.66491612187046, 35.758893319905404]], 'compliance_tensor': [[4.9, -1.5, -1.6, 0.0, -1.4, 0.0], [-1.5, 6.5, -2.5, 0.0, 1.0, 0.0], [-1.6, -2.5, 6.9, 0.0, -0.3, 0.0], [0.0, 0.0, 0.0, 37.6, 0.0, 13.6], [-1.4, 1.0, -0.3, 0.0, 12.8, 0.0], [0.0, 0.0, 0.0, 13.6, 0.0, 19.1]], 'warnings': [], 'nsites': 12}",0.0,57.0,147.0,1.5,0.33,151.62