,mp_id,Formula,Composition,IPF,Density,Elastic_Tensor,E_above_Hull,G_VRH,K_VRH,Elastic_Anisotropy,poisson_ratio,Y_Modulus
263,mp-30750,CeAl4Ni,"{'Ce': 1.0, 'Al': 4.0, 'Ni': 1.0}",0.11447170064341944,4.80790237317909,"{'G_Reuss': 63.0, 'G_VRH': 65.0, 'G_Voigt': 66.0, 'G_Voigt_Reuss_Hill': 65.0, 'K_Reuss': 98.0, 'K_VRH': 98.0, 'K_Voigt': 98.0, 'K_Voigt_Reuss_Hill': 98.0, 'elastic_anisotropy': 0.26, 'elastic_tensor': [[158.0, 53.0, 79.0, 0.0, 0.0, 0.0], [53.0, 190.0, 43.0, 0.0, 0.0, 0.0], [79.0, 43.0, 188.0, 0.0, 0.0, 0.0], [0.0, 0.0, 0.0, 62.0, 0.0, 0.0], [0.0, 0.0, 0.0, 0.0, 88.0, 0.0], [0.0, 0.0, 0.0, 0.0, 0.0, 61.0]], 'homogeneous_poisson': 0.23, 'poisson_ratio': 0.23, 'universal_anisotropy': 0.26, 'elastic_tensor_original': [[158.27143396454395, 52.38119267935039, 84.10704317186132, 0.0, 0.0, 0.0], [53.734416197078694, 189.95858204605472, 44.3202554636846, 0.0, 0.0, 0.0], [73.27946922807847, 41.44823889252826, 188.26629576338922, 0.0, 0.0, 0.0], [0.0, 0.0, -8.017572188389983e-06, 61.88627612113975, 0.0, 0.0], [0.0, 0.0, 0.0, 0.0, 87.87541226861161, 0.0], [0.0, 0.0, 0.0, 0.0, 0.0, 61.117923329771806]], 'compliance_tensor': [[8.436788923173223, -1.6449664167781621, -3.1517869059541574, 2.131108397298844e-07, 0.0, 0.0], [-1.6449664167781626, 5.870419644499764, -0.6496158162679109, -7.605322803330049e-07, 0.0, 0.0], [-3.151786905954157, -0.6496158162679115, 6.777010481563497, -9.62544783434413e-07, 0.0, 0.0], [2.1311083972988435e-07, -7.605322803330047e-07, -9.625447834344132e-07, 16.158671399819497, 0.0, 0.0], [0.0, 0.0, 0.0, 0.0, 11.379747465005057, -1.0598634595939955e-06], [0.0, 0.0, 0.0, 0.0, -1.0598634595939957e-06, 16.36181246873084]], 'warnings': ['Structure contains a rare earth element'], 'nsites': 12}",0.0,65.0,98.0,0.26,0.23,159.9
264,mp-3274,NiGePd,"{'Ni': 1.0, 'Ge': 1.0, 'Pd': 1.0}",0.1475033317941894,9.471640751395206,"{'G_Reuss': 45.0, 'G_VRH': 49.0, 'G_Voigt': 53.0, 'G_Voigt_Reuss_Hill': 49.0, 'K_Reuss': 156.0, 'K_VRH': 157.0, 'K_Voigt': 158.0, 'K_Voigt_Reuss_Hill': 157.0, 'elastic_anisotropy': 1.0, 'elastic_tensor': [[191.0, 145.0, 119.0, 0.0, 0.0, 0.0], [145.0, 191.0, 119.0, 0.0, 0.0, 0.0], [119.0, 119.0, 278.0, 0.0, 0.0, 0.0], [0.0, 0.0, 0.0, 50.0, 0.0, 0.0], [0.0, 0.0, 0.0, 0.0, 50.0, 0.0], [0.0, 0.0, 0.0, 0.0, 0.0, 76.0]], 'homogeneous_poisson': 0.36, 'poisson_ratio': 0.36, 'universal_anisotropy': 1.0, 'elastic_tensor_original': [[190.57741645268487, 145.07259641362913, 118.39013982334814, 0.0, 0.0, 0.0], [145.07215867529493, 190.5746859114981, 118.38796952856832, 0.0, 0.0, 0.0], [119.64120315068226, 119.64120315068226, 277.51417540477445, 0.0, 0.0, 0.0], [0.00031989087955327773, 0.0003135181083392206, 0.0009882085210492022, 49.51790130477844, 0.0, 0.0], [0.0006234822032549551, 0.00022440850395695513, 0.000571273136201527, 0.0, 49.518047578615985, 0.0], [-0.00015754415454683051, -0.0003006035237455714, -0.0003213397224074276, 0.0, 0.0, 75.71688674394308]], 'compliance_tensor': [[13.1, -8.8, -1.8, -0.0, 0.0, 0.0], [-8.8, 13.1, -1.8, 0.0, 0.0, -0.0], [-1.8, -1.8, 5.2, -0.0, 0.0, 0.0], [-0.0, 0.0, -0.0, 20.2, 0.0, -0.0], [0.0, 0.0, 0.0, 0.0, 20.2, 0.0], [0.0, -0.0, 0.0, -0.0, 0.0, 13.2]], 'warnings': [], 'nsites': 6}",0.0,49.0,157.0,1.0,0.36,133.28
265,mp-3455,Er(NiP)2,"{'Er': 1.0, 'Ni': 2.0, 'P': 2.0}",0.13496193298110232,8.293440482472473,"{'G_Reuss': 82.0, 'G_VRH': 85.0, 'G_Voigt': 87.0, 'G_Voigt_Reuss_Hill': 85.0, 'K_Reuss': 138.0, 'K_VRH': 139.0, 'K_Voigt': 139.0, 'K_Voigt_Reuss_Hill': 139.0, 'elastic_anisotropy': 0.31, 'elastic_tensor': [[251.0, 51.0, 100.0, 0.0, 0.0, 0.0], [51.0, 251.0, 100.0, 0.0, 0.0, 0.0], [100.0, 100.0, 250.0, 0.0, 0.0, 0.0], [0.0, 0.0, 0.0, 105.0, 0.0, 0.0], [0.0, 0.0, 0.0, 0.0, 105.0, 0.0], [0.0, 0.0, 0.0, 0.0, 0.0, 60.0]], 'homogeneous_poisson': 0.25, 'poisson_ratio': 0.25, 'universal_anisotropy': 0.31, 'elastic_tensor_original': [[251.06134557184694, 51.39168509385967, 87.3294197879128, 0.0, 0.0, 0.0], [51.39168509385967, 251.06134557184694, 87.3294197879128, 0.0, 0.0, 0.0], [112.09447241647106, 112.09447241647106, 249.7473335912406, 0.0, 0.0, 0.0], [0.0, 0.0, 0.0, 104.74835382708582, 0.0, 0.0], [0.0, 0.0, 0.0, 0.0, 104.74835382708582, 0.0], [0.6031052062363969, -0.6031052062363973, 0.0, 2.500001683937838e-07, 2.500001682772283e-07, 60.307539821631934]], 'compliance_tensor': [[4.7, -0.3, -1.8, 0.0, -0.0, 0.0], [-0.3, 4.7, -1.8, -0.0, 0.0, 0.0], [-1.8, -1.8, 5.4, -0.0, -0.0, -0.0], [0.0, -0.0, -0.0, 9.5, 0.0, -0.0], [-0.0, 0.0, -0.0, 0.0, 9.5, -0.0], [0.0, 0.0, -0.0, -0.0, -0.0, 16.6]], 'warnings': ['Contains a rare earth element'], 'nsites': 5}",0.0,85.0,139.0,0.31,0.25,212.5
266,mp-3587,Sc(SiNi)2,"{'Sc': 1.0, 'Si': 2.0, 'Ni': 2.0}",0.10929185668673458,5.206027765850186,"{'G_Reuss': 61.0, 'G_VRH': 62.0, 'G_Voigt': 63.0, 'G_Voigt_Reuss_Hill': 62.0, 'K_Reuss': 147.0, 'K_VRH': 149.0, 'K_Voigt': 151.0, 'K_Voigt_Reuss_Hill': 149.0, 'elastic_anisotropy': 0.22, 'elastic_tensor': [[221.0, 81.0, 126.0, 0.0, 0.0, 0.0], [81.0, 221.0, 126.0, 0.0, 0.0, 0.0], [126.0, 126.0, 249.0, 0.0, 0.0, 0.0], [0.0, 0.0, 0.0, 73.0, 0.0, 0.0], [0.0, 0.0, 0.0, 0.0, 73.0, 0.0], [0.0, 0.0, 0.0, 0.0, 0.0, 52.0]], 'homogeneous_poisson': 0.32, 'poisson_ratio': 0.32, 'universal_anisotropy': 0.22, 'elastic_tensor_original': [[220.80926801170915, 80.534203570508, 122.93653340011852, 0.0, 0.0, 0.0], [80.53809131280988, 220.81600059678667, 122.93646278835438, 0.0, 0.0, 0.0], [130.03716743697376, 130.03716743697376, 249.32399608654936, 0.0, 0.0, 0.0], [9.221036225172727e-05, 2.7833170534191294e-05, 0.00015370991584596732, 72.968193647431, 0.0, 0.0], [-0.00024413033136275932, 0.00021273008172149015, 0.00010613335540004516, 0.0, 72.96812821078944, 0.0], [-0.2310176899599861, -0.2281339147672167, -0.23966276796841135, 0.0, 0.0, 51.864519193624425]], 'compliance_tensor': [[6.5, -0.7, -2.9, 0.0, -0.0, 0.0], [-0.7, 6.5, -2.9, -0.0, 0.0, 0.0], [-2.9, -2.9, 7.0, 0.0, 0.0, 0.0], [0.0, -0.0, 0.0, 13.7, -0.0, 0.0], [-0.0, 0.0, 0.0, -0.0, 13.7, 0.0], [0.0, 0.0, 0.0, 0.0, 0.0, 19.3]], 'warnings': [], 'nsites': 5}",0.0,62.0,149.0,0.22,0.32,163.68
267,mp-3758,Eu(NiP)2,"{'Eu': 1.0, 'Ni': 2.0, 'P': 2.0}",0.1621209751440712,7.432515490681819,"{'G_Reuss': 73.0, 'G_VRH': 75.0, 'G_Voigt': 77.0, 'G_Voigt_Reuss_Hill': 75.0, 'K_Reuss': 121.0, 'K_VRH': 122.0, 'K_Voigt': 122.0, 'K_Voigt_Reuss_Hill': 122.0, 'elastic_anisotropy': 0.31, 'elastic_tensor': [[232.0, 52.0, 86.0, 0.0, 0.0, 0.0], [52.0, 232.0, 86.0, 0.0, 0.0, 0.0], [86.0, 86.0, 184.0, 0.0, 0.0, 0.0], [0.0, 0.0, 0.0, 92.0, 0.0, 0.0], [0.0, 0.0, 0.0, 0.0, 92.0, 0.0], [0.0, 0.0, 0.0, 0.0, 0.0, 61.0]], 'homogeneous_poisson': 0.24, 'poisson_ratio': 0.24, 'universal_anisotropy': 0.31, 'elastic_tensor_original': [[231.91408572626128, 52.42828458895559, 74.26646935397167, 0.0, 0.0, 0.0], [52.428284588958846, 231.91408572626128, 74.26646935397167, 0.0, 1.5547384241689263e-05, 0.0], [96.80111330746877, 96.80111330746877, 183.67164384649848, 0.0, 0.0, 0.0], [0.0, 1.9349979870561766e-05, 0.0, 92.43065993682285, 5.790275993851719e-09, 9.67499317153414e-06], [1.9349979862592192e-05, 0.0, 0.0, -5.790275993844478e-09, 92.43065993682285, 9.674991945627777e-06], [0.6071237038113784, -0.6071237038113083, 0.0, 0.0, 9.617572106234708e-10, 60.70842993076096]], 'compliance_tensor': [[5.2, -0.3, -2.3, 0.0, -0.0, 0.0], [-0.3, 5.2, -2.3, -0.0, 0.0, 0.0], [-2.3, -2.3, 7.6, -0.0, -0.0, 0.0], [0.0, -0.0, -0.0, 10.8, 0.0, -0.0], [-0.0, 0.0, -0.0, 0.0, 10.8, -0.0], [0.0, 0.0, 0.0, -0.0, -0.0, 16.5]], 'warnings': ['Contains a rare earth element'], 'nsites': 5}",0.0,75.0,122.0,0.31,0.24,186.0
268,mp-4692,Dy(SiNi)2,"{'Dy': 1.0, 'Si': 2.0, 'Ni': 2.0}",0.14409817144181977,7.463523150420108,"{'G_Reuss': 72.0, 'G_VRH': 74.0, 'G_Voigt': 75.0, 'G_Voigt_Reuss_Hill': 74.0, 'K_Reuss': 120.0, 'K_VRH': 121.0, 'K_Voigt': 121.0, 'K_Voigt_Reuss_Hill': 121.0, 'elastic_anisotropy': 0.21, 'elastic_tensor': [[221.0, 52.0, 83.0, 0.0, 0.0, 0.0], [52.0, 221.0, 83.0, 0.0, 0.0, 0.0], [83.0, 83.0, 209.0, 0.0, 0.0, 0.0], [0.0, 0.0, 0.0, 88.0, 0.0, 0.0], [0.0, 0.0, 0.0, 0.0, 88.0, 0.0], [0.0, 0.0, 0.0, 0.0, 0.0, 56.0]], 'homogeneous_poisson': 0.25, 'poisson_ratio': 0.25, 'universal_anisotropy': 0.21, 'elastic_tensor_original': [[220.60958841538275, 51.520692645075265, 70.62125245178039, 1.4799700920529074e-05, 1.4799700920529074e-05, 0.0], [51.52069264507215, 220.60958841538275, 70.62125245178039, 1.4799700917584325e-05, 1.6766804392386904e-07, 0.0], [95.96166325936694, 95.96166325936694, 208.93469690674908, 4.359938075929913e-05, 4.359938075929913e-05, 0.0], [0.0, 1.8562852588750033e-05, 0.0, 87.58627276370899, -5.425902585513642e-07, 9.281396762481322e-06], [1.856285258496342e-05, 0.0, 0.0, 5.425902584416904e-07, 87.58627276370899, 9.281455815541968e-06], [0.5609623275411312, -0.5609623275410771, 0.0, 0.0, 4.29327530163098e-08, 56.09329356365888]], 'compliance_tensor': [[5.4, -0.5, -1.9, 0.0, -0.0, 0.0], [-0.5, 5.4, -1.9, -0.0, 0.0, 0.0], [-1.9, -1.9, 6.3, -0.0, -0.0, 0.0], [0.0, -0.0, -0.0, 11.4, 0.0, -0.0], [-0.0, 0.0, -0.0, 0.0, 11.4, -0.0], [0.0, 0.0, 0.0, -0.0, -0.0, 17.8]], 'warnings': ['Contains a rare earth element'], 'nsites': 5}",0.0,74.0,121.0,0.21,0.25,185.0
269,mp-505820,NiPS,"{'Ni': 1.0, 'P': 1.0, 'S': 1.0}",0.12373270156860848,4.765128676272897,"{'G_Reuss': 61.0, 'G_VRH': 61.0, 'G_Voigt': 62.0, 'G_Voigt_Reuss_Hill': 61.0, 'K_Reuss': 118.0, 'K_VRH': 118.0, 'K_Voigt': 118.0, 'K_Voigt_Reuss_Hill': 118.0, 'elastic_anisotropy': 0.07, 'elastic_tensor': [[212.0, 71.0, 71.0, 0.0, 0.0, 0.0], [71.0, 212.0, 71.0, 0.0, 0.0, 0.0], [71.0, 71.0, 212.0, 0.0, 0.0, 0.0], [0.0, 0.0, 0.0, 56.0, 0.0, 0.0], [0.0, 0.0, 0.0, 0.0, 56.0, 0.0], [0.0, 0.0, 0.0, 0.0, 0.0, 56.0]], 'homogeneous_poisson': 0.28, 'poisson_ratio': 0.28, 'universal_anisotropy': 0.07, 'elastic_tensor_original': [[212.45338609091837, 71.14558093977686, 71.66296257809627, 0.0, 0.0, 0.0], [71.66365727465462, 212.45445003049744, 71.14567108181637, 0.0, 0.0, 0.0], [70.3839687959502, 71.06383252655591, 212.5747623606041, 2.4461007472170227e-05, 0.0002473168255485408, 0.002568646384651371], [0.0003754803570524415, 0.00035007366622630536, 0.00031471363260156764, 55.86849005991565, 0.0, 0.0], [2.523335732817106e-05, -6.423339441463702e-06, -6.09667246419757e-06, 0.0, 55.68828967189247, 0.0], [0.0001857001765865782, 0.00016604682456433672, 0.00017354016502301318, 0.0, 0.0, 55.868485779911595]], 'compliance_tensor': [[5.7, -1.4, -1.4, 0.0, 0.0, 0.0], [-1.4, 5.7, -1.4, 0.0, 0.0, 0.0], [-1.4, -1.4, 5.7, 0.0, 0.0, 0.0], [0.0, 0.0, 0.0, 17.9, 0.0, 0.0], [0.0, 0.0, 0.0, 0.0, 17.9, 0.0], [0.0, 0.0, 0.0, 0.0, 0.0, 17.9]], 'warnings': [], 'nsites': 12}",0.0,61.0,118.0,0.07,0.28,156.16
270,mp-5176,Y(SiNi)2,"{'Y': 1.0, 'Si': 2.0, 'Ni': 2.0}",0.12460683203631895,5.761594105963668,"{'G_Reuss': 69.0, 'G_VRH': 70.0, 'G_Voigt': 72.0, 'G_Voigt_Reuss_Hill': 70.0, 'K_Reuss': 136.0, 'K_VRH': 136.0, 'K_Voigt': 136.0, 'K_Voigt_Reuss_Hill': 136.0, 'elastic_anisotropy': 0.22, 'elastic_tensor': [[233.0, 67.0, 102.0, 0.0, 0.0, 0.0], [67.0, 233.0, 102.0, 0.0, 0.0, 0.0], [102.0, 102.0, 215.0, 0.0, 0.0, 0.0], [0.0, 0.0, 0.0, 83.0, 0.0, 0.0], [0.0, 0.0, 0.0, 0.0, 83.0, 0.0], [0.0, 0.0, 0.0, 0.0, 0.0, 55.0]], 'homogeneous_poisson': 0.28, 'poisson_ratio': 0.28, 'universal_anisotropy': 0.22, 'elastic_tensor_original': [[233.4671666175284, 67.36118122394954, 102.82816311741713, 0.0, 0.0, 0.0], [67.3608412845906, 233.46686357196023, 102.8279688408221, 0.0, 0.0, 0.0], [101.74109226547962, 101.74109226547962, 215.34814566798465, 0.0, 0.0, 0.0], [-0.00012905679159544626, -0.00028161922697886175, 0.0006662292996713444, 82.87852086497769, 0.0, 0.0], [-0.0005689150968588931, -0.00011910726838222792, 0.00163664799319507, 0.0, 82.87866189689368, 0.0], [5.241695140735083e-05, 6.0316988008813255e-05, 5.957366735954401e-05, 0.0, 0.0, 55.15161341501041]], 'compliance_tensor': [[5.5, -0.6, -2.3, -0.0, 0.0, 0.0], [-0.6, 5.5, -2.3, -0.0, 0.0, 0.0], [-2.3, -2.3, 6.9, 0.0, -0.0, -0.0], [-0.0, -0.0, 0.0, 12.1, -0.0, -0.0], [0.0, 0.0, -0.0, -0.0, 12.1, -0.0], [0.0, 0.0, -0.0, -0.0, -0.0, 18.1]], 'warnings': [], 'nsites': 5}",0.0,70.0,136.0,0.22,0.28,179.20000000000002
271,mp-5383,NdNiC2,"{'Nd': 1.0, 'Ni': 1.0, 'C': 2.0}",0.19952070452349543,7.069543236310176,"{'G_Reuss': 84.0, 'G_VRH': 86.0, 'G_Voigt': 88.0, 'G_Voigt_Reuss_Hill': 86.0, 'K_Reuss': 165.0, 'K_VRH': 172.0, 'K_Voigt': 180.0, 'K_Voigt_Reuss_Hill': 172.0, 'elastic_anisotropy': 0.34, 'elastic_tensor': [[368.0, 161.0, 104.0, 0.0, 0.0, 0.0], [161.0, 297.0, 108.0, 0.0, 0.0, 0.0], [104.0, 108.0, 209.0, 0.0, 0.0, 0.0], [0.0, 0.0, 0.0, 86.0, 0.0, 0.0], [0.0, 0.0, 0.0, 0.0, 74.0, 0.0], [0.0, 0.0, 0.0, 0.0, 0.0, 115.0]], 'homogeneous_poisson': 0.29, 'poisson_ratio': 0.29, 'universal_anisotropy': 0.34, 'elastic_tensor_original': [[367.9673996376524, 169.45892194844362, 104.42043721296808, 0.0, 0.0, 0.0], [152.52397856138893, 297.0200988805674, 102.55922708437859, 0.0, 0.0, 0.0], [104.21528935377945, 112.74719426993929, 209.03468901949273, 0.0, 0.0, 0.0], [0.0, 0.0, 0.0, 86.02777093667424, 0.0, 0.0], [0.0, 0.0, 0.0, 0.0, 73.66128914250974, 0.0], [0.0, 0.0, 0.0, 0.0, 0.0, 115.00126079080226]], 'compliance_tensor': [[3.7, -1.7, -1.0, 0.0, 0.0, 0.0], [-1.7, 4.9, -1.7, 0.0, 0.0, 0.0], [-1.0, -1.7, 6.2, 0.0, 0.0, -0.0], [0.0, 0.0, 0.0, 11.6, 0.0, 0.0], [0.0, 0.0, 0.0, 0.0, 13.6, 0.0], [0.0, 0.0, -0.0, 0.0, 0.0, 8.7]], 'warnings': ['Contains a rare earth element'], 'nsites': 4}",0.0,86.0,172.0,0.34,0.29,221.88
272,mp-568931,YbNiSb,"{'Yb': 1.0, 'Ni': 1.0, 'Sb': 1.0}",0.1454212709745976,9.053953926282425,"{'G_Reuss': 29.0, 'G_VRH': 33.0, 'G_Voigt': 37.0, 'G_Voigt_Reuss_Hill': 33.0, 'K_Reuss': 69.0, 'K_VRH': 69.0, 'K_Voigt': 69.0, 'K_Voigt_Reuss_Hill': 69.0, 'elastic_anisotropy': 1.4, 'elastic_tensor': [[150.0, 29.0, 29.0, 0.0, 0.0, 0.0], [29.0, 150.0, 29.0, 0.0, 0.0, 0.0], [29.0, 29.0, 150.0, 0.0, 0.0, 0.0], [0.0, 0.0, 0.0, 22.0, 0.0, 0.0], [0.0, 0.0, 0.0, 0.0, 22.0, 0.0], [0.0, 0.0, 0.0, 0.0, 0.0, 22.0]], 'homogeneous_poisson': 0.29, 'poisson_ratio': 0.29, 'universal_anisotropy': 1.4, 'elastic_tensor_original': [[149.93232143697062, 28.453619976954805, 28.453628896069905, 0.0, 0.0, 0.0], [28.580849443195337, 149.96279761640355, 28.580849443195337, 0.0, 0.0, 0.0], [28.479238197488378, 28.4792292382429, 149.93648374688922, 0.0, 0.0, 0.0], [0.02004109519802638, 0.024134806377523122, 0.027893383808736922, 21.617383752057222, 0.0, 0.0], [-0.038500189375429365, -0.04274422034006324, -0.03810624886666325, 0.0, 21.628701381632705, 0.0], [-0.11210891585264862, 0.25766034939713467, 0.07520835026484178, 5.680029897812809e-07, -2.0056183560384603e-07, 21.63160874764149]], 'compliance_tensor': [[7.1, -1.1, -1.1, 0.0, -0.0, 0.0], [-1.1, 7.1, -1.1, -0.0, 0.0, 0.0], [-1.1, -1.1, 7.1, -0.0, -0.0, -0.0], [0.0, -0.0, -0.0, 46.2, 0.0, -0.0], [-0.0, 0.0, -0.0, 0.0, 46.2, -0.0], [0.0, 0.0, -0.0, -0.0, -0.0, 46.2]], 'warnings': ['Contains a rare earth element'], 'nsites': 3}",0.0,33.0,69.0,1.4,0.29,85.14
273,mp-7080,Li5(NiN)3,"{'Li': 5.0, 'Ni': 3.0, 'N': 3.0}",0.1835881937135513,3.2791826701491744,"{'G_Reuss': 33.0, 'G_VRH': 47.0, 'G_Voigt': 60.0, 'G_Voigt_Reuss_Hill': 47.0, 'K_Reuss': 57.0, 'K_VRH': 79.0, 'K_Voigt': 101.0, 'K_Voigt_Reuss_Hill': 79.0, 'elastic_anisotropy': 5.04, 'elastic_tensor': [[93.0, 23.0, 30.0, 0.0, 0.0, 0.0], [23.0, 93.0, 30.0, 0.0, 0.0, 0.0], [30.0, 30.0, 559.0, 0.0, 0.0, 0.0], [0.0, 0.0, 0.0, 23.0, 0.0, 0.0], [0.0, 0.0, 0.0, 0.0, 23.0, 0.0], [0.0, 0.0, 0.0, 0.0, 0.0, 35.0]], 'homogeneous_poisson': 0.25, 'poisson_ratio': 0.25, 'universal_anisotropy': 5.04, 'elastic_tensor_original': [[94.10473562343198, 21.93994540071741, 31.539357819055077, 0.0, 0.0, 0.0], [22.313441776985993, 93.49230415837233, 31.70531482339638, 0.0, 0.0, 0.0], [27.494524794146052, 27.494539512530537, 559.0013622428836, 0.0, 0.0, 0.0], [-0.3682918754416631, -0.35536959127444123, -0.3228942706266853, 23.170955736922753, 0.0, 0.0], [-0.011946823600623198, -0.012433455115725562, -0.00870347017300361, 0.0, 23.219682374364595, 0.0], [0.08799422994471175, 0.049828004759810154, 0.07535141203075571, 0.0, 0.0, 34.16708512127308]], 'compliance_tensor': [[11.6, -2.7, -0.5, 0.0, 0.0, 0.0], [-2.7, 11.6, -0.5, 0.0, 0.0, 0.0], [-0.5, -0.5, 1.8, -0.0, -0.0, -0.0], [0.0, 0.0, -0.0, 43.1, 0.0, 0.0], [0.0, 0.0, -0.0, 0.0, 43.1, 0.0], [0.0, 0.0, -0.0, 0.0, 0.0, 28.6]], 'warnings': [], 'nsites': 11}",0.0,47.0,79.0,5.04,0.25,117.5
274,mp-7559,YNi4B,"{'Y': 1.0, 'Ni': 4.0, 'B': 1.0}",0.1581359553333936,7.449817761107802,"{'G_Reuss': 75.0, 'G_VRH': 75.0, 'G_Voigt': 75.0, 'G_Voigt_Reuss_Hill': 75.0, 'K_Reuss': 156.0, 'K_VRH': 156.0, 'K_Voigt': 156.0, 'K_Voigt_Reuss_Hill': 156.0, 'elastic_anisotropy': 0.05, 'elastic_tensor': [[258.0, 102.0, 101.0, 0.0, 0.0, 0.0], [102.0, 258.0, 101.0, 0.0, 0.0, 0.0], [101.0, 101.0, 282.0, 0.0, 0.0, 0.0], [0.0, 0.0, 0.0, 67.0, 0.0, 0.0], [0.0, 0.0, 0.0, 0.0, 67.0, 0.0], [0.0, 0.0, 0.0, 0.0, 0.0, 78.0]], 'homogeneous_poisson': 0.29, 'poisson_ratio': 0.29, 'universal_anisotropy': 0.05, 'elastic_tensor_original': [[259.00316234773163, 101.34220406383967, 106.79498356960005, 0.0, 0.0, 0.0], [101.46182333448985, 259.70313227158755, 107.32662075615956, 0.0, 0.0, 0.0], [95.18080565735296, 95.1808096378696, 282.4756811009887, 0.0, 0.0, 0.0], [0.0026408052064462143, 0.0026077324569825245, 0.0020017206216468137, 66.67543199155563, 0.0, 0.0], [0.003966368328811579, 0.004564836755128945, 0.005425829286668863, 0.0, 66.87739972344494, 0.0], [0.0008731897283487834, 0.0006274396246141031, 0.0007796823729862832, 0.0, 0.0, 77.21297889133088]], 'compliance_tensor': [[4.9, -1.5, -1.2, 0.0, -0.0, 0.0], [-1.5, 4.9, -1.2, 0.0, -0.0, 0.0], [-1.2, -1.2, 4.4, -0.0, 0.0, -0.0], [0.0, 0.0, -0.0, 15.0, 0.0, 0.0], [-0.0, -0.0, 0.0, 0.0, 15.0, -0.0], [0.0, 0.0, -0.0, 0.0, -0.0, 12.8]], 'warnings': [], 'nsites': 12}",0.0,75.0,156.0,0.05,0.29,193.5
275,mp-8310,Li(NiP)2,"{'Li': 1.0, 'Ni': 2.0, 'P': 2.0}",0.12064281055565783,4.7584496452436715,"{'G_Reuss': 36.0, 'G_VRH': 41.0, 'G_Voigt': 46.0, 'G_Voigt_Reuss_Hill': 41.0, 'K_Reuss': 116.0, 'K_VRH': 117.0, 'K_Voigt': 119.0, 'K_Voigt_Reuss_Hill': 117.0, 'elastic_anisotropy': 1.33, 'elastic_tensor': [[198.0, 47.0, 89.0, 0.0, 0.0, 0.0], [47.0, 198.0, 89.0, 0.0, 0.0, 0.0], [89.0, 89.0, 229.0, 0.0, 0.0, 0.0], [0.0, 0.0, 0.0, 39.0, 0.0, 0.0], [0.0, 0.0, 0.0, 0.0, 39.0, 0.0], [0.0, 0.0, 0.0, 0.0, 0.0, 18.0]], 'homogeneous_poisson': 0.34, 'poisson_ratio': 0.34, 'universal_anisotropy': 1.33, 'elastic_tensor_original': [[197.63916899398663, 46.79595868708068, 88.03772179177513, 0.0, 0.0, 0.0], [46.78301091529696, 197.629897738723, 88.02526853377117, 0.0, 0.0, 0.0], [89.56958844363277, 89.56958844363277, 228.77929777522584, 0.0, 0.0, 0.0], [0.0008462131740630729, 0.0010019826617253137, 0.0009423495739542221, 38.84337570240904, 0.0, 0.0], [0.0010534850233288118, 0.0008935322533138594, 0.001020871905880194, 0.0, 38.84342494573515, 0.0], [0.0002866964870441365, 0.00030376314329092456, 0.00028785647858513763, 0.0, 0.0, 18.203157091646368]], 'compliance_tensor': [[6.2, -0.5, -2.2, 0.0, -0.0, 0.0], [-0.5, 6.2, -2.2, 0.0, -0.0, 0.0], [-2.2, -2.2, 6.1, 0.0, 0.0, 0.0], [0.0, 0.0, 0.0, 25.7, 0.0, 0.0], [-0.0, -0.0, 0.0, 0.0, 25.7, 0.0], [0.0, 0.0, 0.0, 0.0, 0.0, 54.9]], 'warnings': [], 'nsites': 5}",0.0,41.0,117.0,1.33,0.34,109.88000000000001