,mp_id,Formula,Composition,IPF,Density,Elastic_Tensor,E_above_Hull,G_VRH,K_VRH,Elastic_Anisotropy,poisson_ratio,Y_Modulus
133,mp-19448,Ni3TeO6,"{'Ni': 3.0, 'Te': 1.0, 'O': 6.0}",0.5997120220006629,6.1775872260526,"{'G_Reuss': 77.0, 'G_VRH': 78.0, 'G_Voigt': 78.0, 'G_Voigt_Reuss_Hill': 78.0, 'K_Reuss': 156.0, 'K_VRH': 157.0, 'K_Voigt': 157.0, 'K_Voigt_Reuss_Hill': 157.0, 'elastic_anisotropy': 0.05, 'elastic_tensor': [[277.0, 117.0, 96.0, 6.0, 1.0, 0.0], [117.0, 277.0, 96.0, -6.0, -1.0, 0.0], [96.0, 96.0, 245.0, 0.0, 0.0, 0.0], [6.0, -6.0, 0.0, 73.0, 0.0, -1.0], [1.0, -1.0, 0.0, 0.0, 73.0, 6.0], [0.0, 0.0, 0.0, -1.0, 6.0, 80.0]], 'homogeneous_poisson': 0.29, 'poisson_ratio': 0.29, 'universal_anisotropy': 0.05, 'elastic_tensor_original': [[277.195281297023, 116.47850130452103, 96.14887193135078, -5.5704766552442955, -1.4400162749311687, 0.10578425538700341], [116.11896035865075, 277.44043708815366, 96.07833501654514, 5.626153840123494, 1.6402318525457633, 0.20745146297195138], [96.30978319272275, 96.30978185288487, 244.6227264230473, 0.0, 0.0, 1.2449901229150233e-06], [-5.774846073729862, 5.452037663963259, -0.07369166669587611, 73.41154241597546, 0.006029584811260967, 0.5927673486813647], [-0.4908697726885322, 0.8569710723326283, -0.4178095301146181, 0.06613266972532977, 73.55819663452421, -5.480251579337107], [-0.12931377418668186, -0.10815947484247984, -0.07824599494491624, 0.8511387863220398, -5.461720676721502, 78.9553625875543]], 'compliance_tensor': [[4.7, -1.6, -1.2, -0.5, -0.1, -0.0], [-1.6, 4.7, -1.2, 0.5, 0.1, -0.0], [-1.2, -1.2, 5.1, 0.0, -0.0, 0.0], [-0.5, 0.5, -0.0, 13.7, -0.0, 0.2], [-0.1, 0.1, -0.0, -0.0, 13.7, -1.0], [-0.0, -0.0, 0.0, 0.2, -1.0, 12.6]], 'warnings': [], 'nsites': 20}",0.0,78.0,157.0,0.05,0.29,201.24
134,mp-20185,LuNiSb,"{'Lu': 1.0, 'Ni': 1.0, 'Sb': 1.0}",0.13528302537645984,9.62670975912503,"{'G_Reuss': 61.0, 'G_VRH': 62.0, 'G_Voigt': 62.0, 'G_Voigt_Reuss_Hill': 62.0, 'K_Reuss': 80.0, 'K_VRH': 80.0, 'K_Voigt': 80.0, 'K_Voigt_Reuss_Hill': 80.0, 'elastic_anisotropy': 0.05, 'elastic_tensor': [[173.0, 34.0, 34.0, 0.0, 0.0, 0.0], [34.0, 173.0, 34.0, 0.0, 0.0, 0.0], [34.0, 34.0, 173.0, 0.0, 0.0, 0.0], [0.0, 0.0, 0.0, 57.0, 0.0, 0.0], [0.0, 0.0, 0.0, 0.0, 57.0, 0.0], [0.0, 0.0, 0.0, 0.0, 0.0, 57.0]], 'homogeneous_poisson': 0.19, 'poisson_ratio': 0.19, 'universal_anisotropy': 0.05, 'elastic_tensor_original': [[173.2854152468832, 33.63821184893007, 33.63821184893007, 0.0, 0.0, 0.0], [33.63821184893007, 173.2854152468832, 33.63821184893007, 0.0, 0.0, 0.0], [33.63821184893007, 33.63821184893007, 173.2854152468832, 0.0, 0.0, 0.0], [0.0, 0.0, 0.0, 56.83329467487921, 0.0, 0.0], [0.0, 0.0, 0.0, 0.0, 56.83329467487921, 0.0], [0.0, 0.0, 0.0, 0.0, 0.0, 56.83329467487921]], 'compliance_tensor': [[6.2, -1.0, -1.0, 0.0, -0.0, 0.0], [-1.0, 6.2, -1.0, -0.0, 0.0, -0.0], [-1.0, -1.0, 6.2, -0.0, -0.0, 0.0], [0.0, -0.0, -0.0, 17.6, 0.0, -0.0], [-0.0, 0.0, -0.0, 0.0, 17.6, -0.0], [0.0, -0.0, 0.0, -0.0, -0.0, 17.6]], 'warnings': ['Contains a rare earth element'], 'nsites': 3}",0.0,62.0,80.0,0.05,0.19,147.56
135,mp-20557,YSiNi,"{'Y': 1.0, 'Si': 1.0, 'Ni': 1.0}",0.13754354357258533,5.676460121547169,"{'G_Reuss': 60.0, 'G_VRH': 62.0, 'G_Voigt': 64.0, 'G_Voigt_Reuss_Hill': 62.0, 'K_Reuss': 111.0, 'K_VRH': 112.0, 'K_Voigt': 113.0, 'K_Voigt_Reuss_Hill': 112.0, 'elastic_anisotropy': 0.38, 'elastic_tensor': [[182.0, 74.0, 58.0, 0.0, 0.0, 0.0], [74.0, 158.0, 97.0, 0.0, 0.0, 0.0], [58.0, 97.0, 220.0, 0.0, 0.0, 0.0], [0.0, 0.0, 0.0, 85.0, 0.0, 0.0], [0.0, 0.0, 0.0, 0.0, 59.0, 0.0], [0.0, 0.0, 0.0, 0.0, 0.0, 65.0]], 'homogeneous_poisson': 0.27, 'poisson_ratio': 0.27, 'universal_anisotropy': 0.38, 'elastic_tensor_original': [[220.05970552980006, 62.970050594105196, 99.49809796494864, 0.0, 0.0, 0.0], [52.66700949494495, 182.20375830908256, 71.65980337307207, 0.0, 0.0, 0.0], [93.93841503707839, 75.90436290521382, 158.18522068070158, 0.0, 0.0, 0.0], [0.0006892515426365572, 0.00030471142036036863, -0.010233920747506817, 65.26660373637426, 0.0, 0.0], [0.0037496561278886112, 0.0038560694459307426, 0.0036990794684867395, 0.0, 85.2571161295891, 0.0], [-0.013751848870942936, -0.01026857582359355, -0.014053662179496487, 0.0, 0.0, 58.851870334796565]], 'compliance_tensor': [[6.8, -2.8, -0.5, 0.0, -0.0, 0.0], [-2.8, 9.8, -3.6, 0.0, 0.0, 0.0], [-0.5, -3.6, 6.3, 0.0, 0.0, 0.0], [0.0, 0.0, 0.0, 11.7, 0.0, 0.0], [-0.0, 0.0, 0.0, 0.0, 17.0, 0.0], [0.0, 0.0, 0.0, 0.0, 0.0, 15.3]], 'warnings': [], 'nsites': 12}",0.0,62.0,112.0,0.38,0.27,157.48
136,mp-20744,ZrInNi2,"{'Zr': 1.0, 'In': 1.0, 'Ni': 2.0}",0.1515995981079875,8.53605895640683,"{'G_Reuss': 48.0, 'G_VRH': 51.0, 'G_Voigt': 54.0, 'G_Voigt_Reuss_Hill': 51.0, 'K_Reuss': 139.0, 'K_VRH': 139.0, 'K_Voigt': 139.0, 'K_Voigt_Reuss_Hill': 139.0, 'elastic_anisotropy': 0.58, 'elastic_tensor': [[185.0, 117.0, 117.0, 0.0, 0.0, 0.0], [117.0, 185.0, 117.0, 0.0, 0.0, 0.0], [117.0, 117.0, 185.0, 0.0, 0.0, 0.0], [0.0, 0.0, 0.0, 67.0, 0.0, 0.0], [0.0, 0.0, 0.0, 0.0, 67.0, 0.0], [0.0, 0.0, 0.0, 0.0, 0.0, 67.0]], 'homogeneous_poisson': 0.34, 'poisson_ratio': 0.34, 'universal_anisotropy': 0.58, 'elastic_tensor_original': [[180.65397651178463, 116.89121198685217, 116.89121198685217, 0.0, 0.0, 0.0], [116.85891793282347, 186.88795052047763, 116.85891793282347, 0.0, 0.0, 0.0], [116.69509194560463, 116.69509194560463, 186.7239816133257, 0.0, 0.0, 0.0], [0.06818300278869831, 0.05864853181258503, 0.05889842174993514, 67.35950935035906, 0.0, 0.0], [0.04605760928138539, 0.0526680887002856, 0.046561149285646246, 0.0, 67.3571387006839, 0.0], [-0.06778154368666223, -0.06293142162081816, -0.07572811808847592, 0.0, 0.0, 67.35357408817207]], 'compliance_tensor': [[10.6, -4.1, -4.1, -0.0, 0.0, 0.0], [-4.1, 10.6, -4.1, 0.0, -0.0, 0.0], [-4.1, -4.1, 10.6, 0.0, 0.0, -0.0], [-0.0, 0.0, 0.0, 14.8, -0.0, -0.0], [0.0, -0.0, 0.0, -0.0, 14.8, -0.0], [0.0, 0.0, -0.0, -0.0, -0.0, 14.8]], 'warnings': [], 'nsites': 4}",0.0,51.0,139.0,0.58,0.34,136.68
137,mp-20952,TiNiSb,"{'Ti': 1.0, 'Ni': 1.0, 'Sb': 1.0}",0.1275434044249476,7.23884154747617,"{'G_Reuss': 57.0, 'G_VRH': 57.0, 'G_Voigt': 57.0, 'G_Voigt_Reuss_Hill': 57.0, 'K_Reuss': 128.0, 'K_VRH': 128.0, 'K_Voigt': 128.0, 'K_Voigt_Reuss_Hill': 128.0, 'elastic_anisotropy': 0.0, 'elastic_tensor': [[203.0, 91.0, 91.0, 0.0, 0.0, 0.0], [91.0, 203.0, 91.0, 0.0, 0.0, 0.0], [91.0, 91.0, 203.0, 0.0, 0.0, 0.0], [0.0, 0.0, 0.0, 57.0, 0.0, 0.0], [0.0, 0.0, 0.0, 0.0, 57.0, 0.0], [0.0, 0.0, 0.0, 0.0, 0.0, 57.0]], 'homogeneous_poisson': 0.31, 'poisson_ratio': 0.31, 'universal_anisotropy': 0.0, 'elastic_tensor_original': [[200.7824101238687, 88.93364642885317, 88.93364642885317, 0.0, 0.0, 0.0], [94.39688351787933, 206.1862923049467, 94.39688351787933, 0.0, 0.0, 0.0], [89.79201114653608, 89.79207197687444, 201.79459304532526, -0.0006051756534282342, -0.0006600512750633082, -0.0005658785330757514], [-0.04516669769864904, -0.04267343392518315, -0.042520421188441085, 57.2466137840892, 0.0, 0.0], [0.028827383379725458, 0.027762496872905097, 0.028603594913228222, 0.0, 57.26352350782684, 0.0], [-0.1350160501406901, -0.13350924073914627, -0.1399725939973905, 0.0, 0.0, 57.25945537038433]], 'compliance_tensor': [[6.8, -2.1, -2.1, 0.0, 0.0, 0.0], [-2.1, 6.8, -2.1, 0.0, 0.0, 0.0], [-2.1, -2.1, 6.8, 0.0, 0.0, 0.0], [0.0, 0.0, 0.0, 17.5, 0.0, 0.0], [0.0, 0.0, 0.0, 0.0, 17.5, 0.0], [0.0, 0.0, 0.0, 0.0, 0.0, 17.5]], 'warnings': [], 'nsites': 3}",0.0,57.0,128.0,0.0,0.31,149.34
138,mp-22639,U(NiP)2,"{'U': 1.0, 'Ni': 2.0, 'P': 2.0}",0.12806582597443955,10.00807967206614,"{'G_Reuss': 48.0, 'G_VRH': 54.0, 'G_Voigt': 60.0, 'G_Voigt_Reuss_Hill': 54.0, 'K_Reuss': 186.0, 'K_VRH': 190.0, 'K_Voigt': 193.0, 'K_Voigt_Reuss_Hill': 190.0, 'elastic_anisotropy': 1.36, 'elastic_tensor': [[303.0, 145.0, 159.0, 0.0, 0.0, 0.0], [145.0, 303.0, 159.0, 0.0, 0.0, 0.0], [159.0, 159.0, 205.0, 0.0, 0.0, 0.0], [0.0, 0.0, 0.0, 36.0, 0.0, 0.0], [0.0, 0.0, 0.0, 0.0, 36.0, 0.0], [0.0, 0.0, 0.0, 0.0, 0.0, 113.0]], 'homogeneous_poisson': 0.37, 'poisson_ratio': 0.37, 'universal_anisotropy': 1.36, 'elastic_tensor_original': [[302.7369302544754, 144.98891708652306, 160.60690759037692, -1.5800047652938176e-05, 0.0, 0.0], [144.9889170859414, 302.7369302532672, 160.60690758973263, -3.200906558556907e-05, 1.5800047643838586e-05, 0.0], [158.31739279127234, 158.31739279127234, 204.79317969347687, -2.020032646052382e-05, 2.020032646052382e-05, 0.0], [0.0, -7.220507554568563e-06, 0.0, 36.228963217647824, 4.188443270041501e-08, 3.610276335586094e-06], [7.220507552588506e-06, 0.0, 0.0, -4.188443291072509e-08, 36.22896321764783, -3.610228470703414e-06], [1.126674897311176, -1.1266748973066267, 0.0, 3.488641999235858e-07, 3.9999524152781e-07, 112.66038691538402]], 'compliance_tensor': [[5.7, -0.7, -3.9, 0.0, -0.0, 0.0], [-0.7, 5.7, -3.9, -0.0, 0.0, 0.0], [-3.9, -3.9, 11.0, -0.0, -0.0, 0.0], [0.0, -0.0, -0.0, 27.6, 0.0, -0.0], [-0.0, 0.0, -0.0, 0.0, 27.6, -0.0], [0.0, 0.0, 0.0, -0.0, -0.0, 8.9]], 'warnings': ['Contains a rare earth element'], 'nsites': 5}",0.0,54.0,190.0,1.36,0.37,147.96
139,mp-27409,RbNiBr3,"{'Rb': 1.0, 'Ni': 1.0, 'Br': 3.0}",0.19581354847498084,4.231861123953268,"{'G_Reuss': 2.0, 'G_VRH': 4.0, 'G_Voigt': 6.0, 'G_Voigt_Reuss_Hill': 4.0, 'K_Reuss': 17.0, 'K_VRH': 17.0, 'K_Voigt': 17.0, 'K_Voigt_Reuss_Hill': 17.0, 'elastic_anisotropy': 12.55, 'elastic_tensor': [[29.0, 13.0, 9.0, 0.0, 0.0, 0.0], [13.0, 29.0, 9.0, 0.0, 0.0, 0.0], [9.0, 9.0, 34.0, 0.0, 0.0, 0.0], [0.0, 0.0, 0.0, 1.0, 0.0, 0.0], [0.0, 0.0, 0.0, 0.0, 1.0, 0.0], [0.0, 0.0, 0.0, 0.0, 0.0, 8.0]], 'homogeneous_poisson': 0.4, 'poisson_ratio': 0.4, 'universal_anisotropy': 12.55, 'elastic_tensor_original': [[28.644951866304435, 14.322796432642749, 14.035830671264849, 0.0, 0.0, 0.0], [12.356294196031007, 29.36563080846944, 13.841789251049095, 0.0, 0.0, 0.0], [3.667105689015942, 3.6671055688169294, 33.75626824428015, 0.0, 0.0, 0.0], [0.005450970658424939, 0.0068115342023038344, 0.048558927325334476, 0.8792110126815433, 0.0, 0.0], [-0.10804294425442101, -0.017543799556427174, -0.06318576350568583, 0.0, 0.6530298851512765, 0.0], [-0.14037799654117944, 0.004225956138392671, -0.07734040056862916, 0.0, 0.0, 8.001633478311506]], 'compliance_tensor': [[44.8, -18.3, -6.9, 0.0, -0.0, -0.0], [-18.3, 44.8, -6.9, -0.0, 0.0, -0.0], [-6.9, -6.9, 33.2, -0.0, -0.0, 0.0], [0.0, 0.0, -0.0, 1305.3, -0.0, -0.0], [-0.0, 0.0, -0.0, -0.0, 1305.3, 0.0], [-0.0, -0.0, 0.0, -0.0, 0.0, 126.3]], 'warnings': ['One or more K, G below 2 GPa'], 'nsites': 10}",0.0,4.0,17.0,12.55,0.4,11.2
140,mp-29153,Zr2NiP,"{'Zr': 2.0, 'Ni': 1.0, 'P': 1.0}",0.1143609930548568,6.691111904731711,"{'G_Reuss': 82.0, 'G_VRH': 83.0, 'G_Voigt': 85.0, 'G_Voigt_Reuss_Hill': 83.0, 'K_Reuss': 151.0, 'K_VRH': 152.0, 'K_Voigt': 152.0, 'K_Voigt_Reuss_Hill': 152.0, 'elastic_anisotropy': 0.16, 'elastic_tensor': [[232.0, 111.0, 91.0, 0.0, 9.0, 0.0], [111.0, 256.0, 99.0, 0.0, -2.0, 0.0], [91.0, 99.0, 278.0, 0.0, -0.0, 0.0], [0.0, 0.0, 0.0, 92.0, 0.0, -8.0], [9.0, -2.0, -0.0, 0.0, 74.0, 0.0], [0.0, 0.0, 0.0, -8.0, 0.0, 103.0]], 'homogeneous_poisson': 0.27, 'poisson_ratio': 0.27, 'universal_anisotropy': 0.16, 'elastic_tensor_original': [[255.69506350650107, 97.28511544444325, 111.22347324617353, -3.069007993544349, 0.0, 0.0], [100.15552013409258, 278.03825931525586, 92.2443033864331, 0.14197196824680433, 0.0, 0.0], [111.15413160033889, 90.61792682025084, 232.5047177897327, 9.58140286062215, 0.0, 0.0], [-1.6095943787881395, -0.2355743574444311, 9.289702389860855, 74.36836712593676, 0.0, 0.0], [-0.02095558354189339, -0.022254050014940546, -0.023537616490209738, -0.0004140599382577142, 102.49884425931236, -7.573594460670421], [0.00017476663910638042, 0.00020113663494765972, 0.0001851433041369494, 2.7589995648989293e-05, -7.879686517384874, 92.04732517427045]], 'compliance_tensor': [[5.8, -2.1, -1.2, 0.0, -0.8, 0.0], [-2.1, 5.3, -1.2, 0.0, 0.4, 0.0], [-1.2, -1.2, 4.4, 0.0, 0.1, 0.0], [0.0, 0.0, 0.0, 10.9, 0.0, 0.8], [-0.8, 0.4, 0.1, 0.0, 13.6, 0.0], [0.0, 0.0, 0.0, 0.8, 0.0, 9.8]], 'warnings': [], 'nsites': 8}",0.0,83.0,152.0,0.16,0.27,210.82
141,mp-2949,Ca(NiGe)2,"{'Ca': 1.0, 'Ni': 2.0, 'Ge': 2.0}",0.1600446984037729,5.992976474507232,"{'G_Reuss': 38.0, 'G_VRH': 40.0, 'G_Voigt': 41.0, 'G_Voigt_Reuss_Hill': 40.0, 'K_Reuss': 90.0, 'K_VRH': 90.0, 'K_Voigt': 90.0, 'K_Voigt_Reuss_Hill': 90.0, 'elastic_anisotropy': 0.4, 'elastic_tensor': [[161.0, 37.0, 68.0, 0.0, 0.0, 0.0], [37.0, 161.0, 68.0, 0.0, 0.0, 0.0], [68.0, 68.0, 141.0, 0.0, 0.0, 0.0], [0.0, 0.0, 0.0, 41.0, 0.0, 0.0], [0.0, 0.0, 0.0, 0.0, 41.0, 0.0], [0.0, 0.0, 0.0, 0.0, 0.0, 27.0]], 'homogeneous_poisson': 0.31, 'poisson_ratio': 0.31, 'universal_anisotropy': 0.4, 'elastic_tensor_original': [[161.3472272764344, 36.6489334675391, 68.73052264184365, 0.0, 0.0, 0.0], [36.64720710729346, 161.34586975342688, 68.72795851622837, 0.0, 0.0, 0.0], [66.96427131997466, 66.96427131997466, 141.40466918710425, 0.0, 0.0, 0.0], [0.07133822692249678, 0.10862598478173974, 0.06814844482442725, 40.758945322402774, 0.0, 0.0], [-0.028509462085341514, -0.07134940692984981, -0.04411446568281934, 0.0, 40.72552577708785, 0.0], [-0.00019599014871352386, -0.0001945068142538281, -0.00022019683374784486, 0.0, 0.0, 26.691513329692725]], 'compliance_tensor': [[7.8, -0.2, -3.6, -0.0, 0.0, 0.0], [-0.2, 7.8, -3.6, -0.0, -0.0, 0.0], [-3.6, -3.6, 10.5, 0.0, -0.0, 0.0], [-0.0, -0.0, 0.0, 24.5, -0.0, 0.0], [0.0, -0.0, -0.0, -0.0, 24.5, 0.0], [0.0, 0.0, 0.0, 0.0, 0.0, 37.5]], 'warnings': [], 'nsites': 5}",0.0,40.0,90.0,0.4,0.31,104.80000000000001
142,mp-30183,ZrAl5Ni2,"{'Zr': 1.0, 'Al': 5.0, 'Ni': 2.0}",0.10603612001020433,4.838724775123814,"{'G_Reuss': 83.0, 'G_VRH': 84.0, 'G_Voigt': 84.0, 'G_Voigt_Reuss_Hill': 84.0, 'K_Reuss': 120.0, 'K_VRH': 120.0, 'K_Voigt': 120.0, 'K_Voigt_Reuss_Hill': 120.0, 'elastic_anisotropy': 0.09, 'elastic_tensor': [[231.0, 53.0, 77.0, 0.0, 0.0, 0.0], [53.0, 231.0, 77.0, 0.0, 0.0, 0.0], [77.0, 77.0, 210.0, 0.0, 0.0, 0.0], [0.0, 0.0, 0.0, 93.0, 0.0, 0.0], [0.0, 0.0, 0.0, 0.0, 93.0, 0.0], [0.0, 0.0, 0.0, 0.0, 0.0, 80.0]], 'homogeneous_poisson': 0.22, 'poisson_ratio': 0.22, 'universal_anisotropy': 0.09, 'elastic_tensor_original': [[230.5663225135727, 52.88033677049713, 76.38377850471069, 0.0, 0.0, 0.0], [52.87985608086663, 230.565568403737, 76.38355649891184, 0.0, 0.0, 0.0], [76.93297294175997, 76.93297294175997, 209.8650495704412, 0.0, 0.0, 0.0], [0.0006706463827401705, 0.0006635130700513255, 0.0005803095981581946, 93.23123600496086, 0.0, 0.0], [0.0008135362718334857, 0.0008002362530405854, 0.000711386131295022, 0.0, 93.23121426832385, 0.0], [-3.887974202140934e-05, -3.3579767359295896e-05, -3.0889796636129854e-05, 0.0, 0.0, 79.90186314685114]], 'compliance_tensor': [[5.0, -0.6, -1.6, -0.0, 0.0, 0.0], [-0.6, 5.0, -1.6, -0.0, 0.0, 0.0], [-1.6, -1.6, 5.9, 0.0, 0.0, 0.0], [-0.0, -0.0, 0.0, 10.7, 0.0, 0.0], [0.0, 0.0, 0.0, 0.0, 10.7, 0.0], [0.0, 0.0, 0.0, 0.0, 0.0, 12.5]], 'warnings': [], 'nsites': 8}",0.0,84.0,120.0,0.09,0.22,204.96
143,mp-3432,ScNiSb,"{'Sc': 1.0, 'Ni': 1.0, 'Sb': 1.0}",0.12263807219470131,6.561426054393372,"{'G_Reuss': 66.0, 'G_VRH': 66.0, 'G_Voigt': 66.0, 'G_Voigt_Reuss_Hill': 66.0, 'K_Reuss': 104.0, 'K_VRH': 104.0, 'K_Voigt': 104.0, 'K_Voigt_Reuss_Hill': 104.0, 'elastic_anisotropy': 0.01, 'elastic_tensor': [[196.0, 57.0, 57.0, 0.0, 0.0, 0.0], [57.0, 196.0, 57.0, 0.0, 0.0, 0.0], [57.0, 57.0, 196.0, 0.0, 0.0, 0.0], [0.0, 0.0, 0.0, 64.0, 0.0, 0.0], [0.0, 0.0, 0.0, 0.0, 64.0, 0.0], [0.0, 0.0, 0.0, 0.0, 0.0, 64.0]], 'homogeneous_poisson': 0.24, 'poisson_ratio': 0.24, 'universal_anisotropy': 0.01, 'elastic_tensor_original': [[196.0743051348033, 57.1009142088783, 57.1009142088783, 0.0, 0.0, 0.0], [57.61149499422806, 196.58397175544783, 57.61149499422806, 0.0, 0.0, 0.0], [57.16793619393677, 57.16793619393677, 196.14126236567355, 0.0, 0.0, 0.0], [-0.01105953536984247, -0.01620334668714736, -0.013607090996397299, 64.31992495281057, 0.0, 0.0], [0.0015877035344884387, 0.0016768669366767652, 0.0016092202547250871, 0.0, 64.32510562083448, 0.0], [-0.01492166120709892, -0.012444612235893887, -0.010062316541426839, 0.0, 0.0, 64.32034063284128]], 'compliance_tensor': [[5.9, -1.3, -1.3, 0.0, -0.0, 0.0], [-1.3, 5.9, -1.3, 0.0, 0.0, -0.0], [-1.3, -1.3, 5.9, -0.0, 0.0, 0.0], [0.0, -0.0, -0.0, 15.5, -0.0, 0.0], [-0.0, 0.0, 0.0, -0.0, 15.5, -0.0], [0.0, -0.0, 0.0, -0.0, -0.0, 15.5]], 'warnings': [], 'nsites': 3}",0.0,66.0,104.0,0.01,0.24,163.68
144,mp-3433,YMgNi4,"{'Y': 1.0, 'Mg': 1.0, 'Ni': 4.0}",0.16654738671478722,6.793728183597978,"{'G_Reuss': 56.0, 'G_VRH': 56.0, 'G_Voigt': 57.0, 'G_Voigt_Reuss_Hill': 56.0, 'K_Reuss': 123.0, 'K_VRH': 123.0, 'K_Voigt': 123.0, 'K_Voigt_Reuss_Hill': 123.0, 'elastic_anisotropy': 0.14, 'elastic_tensor': [[184.0, 92.0, 92.0, 0.0, 0.0, 0.0], [92.0, 184.0, 92.0, 0.0, 0.0, 0.0], [92.0, 92.0, 184.0, 0.0, 0.0, 0.0], [0.0, 0.0, 0.0, 65.0, 0.0, 0.0], [0.0, 0.0, 0.0, 0.0, 65.0, 0.0], [0.0, 0.0, 0.0, 0.0, 0.0, 65.0]], 'homogeneous_poisson': 0.3, 'poisson_ratio': 0.3, 'universal_anisotropy': 0.14, 'elastic_tensor_original': [[183.86880169105658, 92.02854898714698, 92.02854898714698, 0.0, 0.0, 0.0], [92.67367104666933, 184.5132179005371, 92.67367104666933, 0.0, 0.0, 0.0], [91.85101399863844, 91.85101399863844, 183.68760004713826, 0.0, 0.0, 0.0], [-0.05535086242366017, -0.059293537399259764, -0.057404428238276496, 64.70067177745725, 0.0, 0.0], [-0.21982289733292343, -0.06803244699988342, 0.09319240799418257, 0.0, 64.6771771019246, 0.0], [-0.00025053000746736814, -0.0002549833414356439, -0.00019045670437878976, 0.0, 0.0, 64.65835534374031]], 'compliance_tensor': [[8.2, -2.7, -2.7, -0.0, 0.0, 0.0], [-2.7, 8.2, -2.7, 0.0, -0.0, 0.0], [-2.7, -2.7, 8.2, 0.0, 0.0, -0.0], [-0.0, 0.0, 0.0, 15.5, -0.0, -0.0], [0.0, -0.0, 0.0, -0.0, 15.5, -0.0], [0.0, 0.0, -0.0, -0.0, -0.0, 15.5]], 'warnings': [], 'nsites': 6}",0.0,56.0,123.0,0.14,0.3,145.6
145,mp-3602,YAl4Ni,"{'Y': 1.0, 'Al': 4.0, 'Ni': 1.0}",0.11131015032080589,4.084857436713342,"{'G_Reuss': 57.0, 'G_VRH': 59.0, 'G_Voigt': 61.0, 'G_Voigt_Reuss_Hill': 59.0, 'K_Reuss': 92.0, 'K_VRH': 92.0, 'K_Voigt': 93.0, 'K_Voigt_Reuss_Hill': 92.0, 'elastic_anisotropy': 0.28, 'elastic_tensor': [[142.0, 56.0, 68.0, 0.0, 0.0, 0.0], [56.0, 184.0, 44.0, 0.0, 0.0, 0.0], [68.0, 44.0, 173.0, 0.0, 0.0, 0.0], [0.0, 0.0, 0.0, 65.0, 0.0, 0.0], [0.0, 0.0, 0.0, 0.0, 79.0, 0.0], [0.0, 0.0, 0.0, 0.0, 0.0, 49.0]], 'homogeneous_poisson': 0.24, 'poisson_ratio': 0.24, 'universal_anisotropy': 0.28, 'elastic_tensor_original': [[172.80475964607658, 42.181446328420016, 68.19981437374564, 0.0, 0.0, 0.0], [44.89527335439531, 183.9265424535139, 55.785182390650725, 0.0, 0.0, 0.0], [68.35022434918011, 55.5642376140996, 141.55075891006092, 0.0, 0.0, 0.0], [-1.7529999085493353e-05, -1.0373325292968076e-05, -2.3326683489550127e-05, 49.23352273587941, 0.0, 0.0], [4.603010882754002e-05, 3.9800115781728814e-05, 7.878689599068146e-05, 0.0, 78.87252494503109, 0.0], [-8.718664012595951e-05, -9.773991650755548e-05, -7.034666844765154e-05, 0.0, 0.0, 65.06819815832617]], 'compliance_tensor': [[9.4, -2.1, -3.2, 0.0, 0.0, 0.0], [-2.1, 6.2, -0.7, 0.0, 0.0, 0.0], [-3.2, -0.7, 7.2, -0.0, 0.0, 0.0], [0.0, 0.0, -0.0, 15.4, 0.0, 0.0], [0.0, 0.0, 0.0, 0.0, 12.7, 0.0], [0.0, 0.0, 0.0, 0.0, 0.0, 20.3]], 'warnings': [], 'nsites': 12}",0.0,59.0,92.0,0.28,0.24,146.32