,mp_id,Formula,Composition,IPF,Density,Elastic_Tensor,E_above_Hull,G_VRH,K_VRH,Elastic_Anisotropy,poisson_ratio,Y_Modulus
185,mp-4989,CrNiAs,"{'Cr': 1.0, 'Ni': 1.0, 'As': 1.0}",0.1576976945005799,7.617337309351947,"{'G_Reuss': 60.0, 'G_VRH': 61.0, 'G_Voigt': 61.0, 'G_Voigt_Reuss_Hill': 61.0, 'K_Reuss': 129.0, 'K_VRH': 129.0, 'K_Voigt': 129.0, 'K_Voigt_Reuss_Hill': 129.0, 'elastic_anisotropy': 0.08, 'elastic_tensor': [[203.0, 84.0, 97.0, 0.0, 0.0, 0.0], [84.0, 203.0, 97.0, 0.0, 0.0, 0.0], [97.0, 97.0, 198.0, 0.0, 0.0, 0.0], [0.0, 0.0, 0.0, 69.0, 0.0, 0.0], [0.0, 0.0, 0.0, 0.0, 69.0, 0.0], [0.0, 0.0, 0.0, 0.0, 0.0, 59.0]], 'homogeneous_poisson': 0.3, 'poisson_ratio': 0.3, 'universal_anisotropy': 0.08, 'elastic_tensor_original': [[202.02962140008785, 83.26047838896584, 93.89632892131995, 0.0, 0.0, 0.0], [84.88103851743773, 202.80231076312938, 95.01235040637651, 0.0, 0.0, 0.0], [100.07488406292909, 100.07492029885493, 197.98899696343295, 0.0, 0.0, 0.0], [-0.0027399735597703158, -0.0010609826399165386, -0.0022454651746327647, 69.30736179299309, 0.0, 0.0], [0.0056923363967052425, 0.005921049317399424, 0.006270332020567179, 0.0, 69.02218079867009, 0.0], [0.00014672007483165658, 0.00014942671235729913, 3.389647938647672e-05, 0.0, 0.0, 59.36367236334165]], 'compliance_tensor': [[6.8, -1.6, -2.6, -0.0, 0.0, -0.0], [-1.6, 6.8, -2.6, -0.0, -0.0, -0.0], [-2.6, -2.6, 7.6, 0.0, 0.0, 0.0], [-0.0, -0.0, 0.0, 14.5, -0.0, -0.0], [-0.0, -0.0, 0.0, -0.0, 14.5, -0.0], [-0.0, -0.0, 0.0, 0.0, -0.0, 16.9]], 'warnings': [], 'nsites': 9}",0.0,61.0,129.0,0.08,0.3,158.6
186,mp-5063,YAl3Ni2,"{'Y': 1.0, 'Al': 3.0, 'Ni': 2.0}",0.12509777157382118,4.9842040450009115,"{'G_Reuss': 68.0, 'G_VRH': 68.0, 'G_Voigt': 69.0, 'G_Voigt_Reuss_Hill': 68.0, 'K_Reuss': 113.0, 'K_VRH': 113.0, 'K_Voigt': 113.0, 'K_Voigt_Reuss_Hill': 113.0, 'elastic_anisotropy': 0.07, 'elastic_tensor': [[192.0, 72.0, 65.0, 0.0, 0.0, 0.0], [72.0, 192.0, 65.0, 0.0, 0.0, 0.0], [65.0, 65.0, 233.0, 0.0, 0.0, 0.0], [0.0, 0.0, 0.0, 72.0, 0.0, 0.0], [0.0, 0.0, 0.0, 0.0, 72.0, 0.0], [0.0, 0.0, 0.0, 0.0, 0.0, 60.0]], 'homogeneous_poisson': 0.25, 'poisson_ratio': 0.25, 'universal_anisotropy': 0.07, 'elastic_tensor_original': [[192.11514346260836, 70.09077431065116, 62.82889737444347, 0.0, 0.0, 0.0], [71.92192389532556, 193.71333224131644, 65.16295053038124, 0.0, 0.0, 0.0], [65.35809633143514, 65.35810849142366, 232.98881312996957, 0.0, 0.0, 0.0], [0.006329938088699307, 0.006443778179448034, 0.006384078135274368, 72.06213800207757, 0.0, 0.0], [0.04092996174109238, 0.048069727159972916, 0.04458705986907052, 0.0, 71.80148033260024, 0.0], [0.11149233511723979, 0.12584248641886958, 0.1270015205261139, 0.0, 0.0, 59.23764352962174]], 'compliance_tensor': [[6.4, -2.0, -1.2, -0.0, 0.0, 0.0], [-2.0, 6.4, -1.2, 0.0, 0.0, 0.0], [-1.2, -1.2, 5.0, -0.0, -0.0, -0.0], [-0.0, 0.0, -0.0, 13.9, 0.0, 0.0], [0.0, 0.0, -0.0, 0.0, 13.9, -0.0], [0.0, 0.0, -0.0, 0.0, -0.0, 16.6]], 'warnings': [], 'nsites': 18}",0.0,68.0,113.0,0.07,0.25,170.0
187,mp-555321,BaNiF4,"{'Ba': 1.0, 'Ni': 1.0, 'F': 4.0}",0.23351549905588165,4.923117646866537,"{'G_Reuss': 26.0, 'G_VRH': 27.0, 'G_Voigt': 28.0, 'G_Voigt_Reuss_Hill': 27.0, 'K_Reuss': 56.0, 'K_VRH': 59.0, 'K_Voigt': 62.0, 'K_Voigt_Reuss_Hill': 59.0, 'elastic_anisotropy': 0.66, 'elastic_tensor': [[89.0, 34.0, 61.0, 0.0, 0.0, 0.0], [34.0, 74.0, 37.0, 0.0, 0.0, 0.0], [61.0, 37.0, 132.0, 0.0, 0.0, 0.0], [0.0, 0.0, 0.0, 27.0, 0.0, 0.0], [0.0, 0.0, 0.0, 0.0, 42.0, 0.0], [0.0, 0.0, 0.0, 0.0, 0.0, 19.0]], 'homogeneous_poisson': 0.3, 'poisson_ratio': 0.3, 'universal_anisotropy': 0.66, 'elastic_tensor_original': [[132.31650761334112, 36.71848288403831, 61.071734553101145, 0.0, 0.0, 0.0], [36.6536767027551, 74.18627801449654, 34.61637868207672, 0.0, 0.0, 0.0], [61.02059255957131, 33.93838871504177, 88.64923977455112, 0.0, 0.0, 0.0], [-0.0007902667273438296, 0.0029070402232052343, 0.001275923431299833, 18.651521388746755, 0.0, 0.0], [0.00013569682337497804, 3.389677584146667e-05, -0.00015442658282693433, 0.0, 42.209964186638594, 0.0], [-0.0001779427295223502, -0.002260013161417604, -0.0012609727890428195, 0.0, 0.0, 26.56101340948609]], 'compliance_tensor': [[17.9, -4.9, -6.9, 0.0, 0.0, 0.0], [-4.9, 16.9, -2.5, 0.0, 0.0, 0.0], [-6.9, -2.5, 11.4, 0.0, 0.0, 0.0], [0.0, 0.0, 0.0, 37.6, 0.0, 0.0], [0.0, 0.0, 0.0, 0.0, 23.7, 0.0], [0.0, 0.0, 0.0, 0.0, 0.0, 53.6]], 'warnings': [], 'nsites': 12}",0.0,27.0,59.0,0.66,0.3,70.2
188,mp-568269,TmNiBi,"{'Tm': 1.0, 'Ni': 1.0, 'Bi': 1.0}",0.1784381716385966,10.925302107160784,"{'G_Reuss': 50.0, 'G_VRH': 51.0, 'G_Voigt': 51.0, 'G_Voigt_Reuss_Hill': 51.0, 'K_Reuss': 84.0, 'K_VRH': 84.0, 'K_Voigt': 84.0, 'K_Voigt_Reuss_Hill': 84.0, 'elastic_anisotropy': 0.1, 'elastic_tensor': [[164.0, 44.0, 44.0, 0.0, 0.0, 0.0], [44.0, 164.0, 44.0, 0.0, 0.0, 0.0], [44.0, 44.0, 164.0, 0.0, 0.0, 0.0], [0.0, 0.0, 0.0, 45.0, 0.0, 0.0], [0.0, 0.0, 0.0, 0.0, 45.0, 0.0], [0.0, 0.0, 0.0, 0.0, 0.0, 45.0]], 'homogeneous_poisson': 0.25, 'poisson_ratio': 0.25, 'universal_anisotropy': 0.1, 'elastic_tensor_original': [[164.20683872926503, 44.3640392762182, 44.3640392762182, 0.0, 0.0, 0.0], [44.3640392762182, 164.20683872926503, 44.3640392762182, 0.0, 0.0, 0.0], [44.3640392762182, 44.3640392762182, 164.20683872926503, 0.0, 0.0, 0.0], [0.0, 0.0, 0.0, 45.231105120794155, 0.0, 0.0], [0.0, 0.0, 0.0, 0.0, 45.231105120794155, 0.0], [0.0, 0.0, 0.0, 0.0, 0.0, 45.231105120794155]], 'compliance_tensor': [[6.9, -1.5, -1.5, -0.0, 0.0, -0.0], [-1.5, 6.9, -1.5, 0.0, -0.0, 0.0], [-1.5, -1.5, 6.9, 0.0, 0.0, 0.0], [-0.0, 0.0, 0.0, 22.1, 0.0, 0.0], [0.0, -0.0, 0.0, 0.0, 22.1, 0.0], [-0.0, 0.0, 0.0, 0.0, 0.0, 22.1]], 'warnings': ['Contains a rare earth element'], 'nsites': 3}",0.0,51.0,84.0,0.1,0.25,127.5
189,mp-569697,Ce(NiP)2,"{'Ce': 1.0, 'Ni': 2.0, 'P': 2.0}",0.13670524792437636,7.204626915392971,"{'G_Reuss': 59.0, 'G_VRH': 67.0, 'G_Voigt': 76.0, 'G_Voigt_Reuss_Hill': 67.0, 'K_Reuss': 109.0, 'K_VRH': 115.0, 'K_Voigt': 120.0, 'K_Voigt_Reuss_Hill': 115.0, 'elastic_anisotropy': 1.49, 'elastic_tensor': [[244.0, 58.0, 90.0, 0.0, 0.0, 0.0], [58.0, 244.0, 90.0, 0.0, 0.0, 0.0], [90.0, 90.0, 118.0, 0.0, 0.0, 0.0], [0.0, 0.0, 0.0, 95.0, 0.0, 0.0], [0.0, 0.0, 0.0, 0.0, 95.0, 0.0], [0.0, 0.0, 0.0, 0.0, 0.0, 65.0]], 'homogeneous_poisson': 0.25, 'poisson_ratio': 0.25, 'universal_anisotropy': 1.49, 'elastic_tensor_original': [[244.3757418042763, 58.0074185737281, 81.06813317767478, 0.0, -8.599883052653366e-06, 0.0], [58.007360232193946, 244.37574180426708, 81.06809241012469, 4.552724957991699e-08, -8.645405968483005e-06, 0.0], [99.31689683791193, 99.31694723815146, 117.6844161359018, 0.0, -1.2400058935570017e-05, 0.0], [0.0, 0.0, 0.0, 94.94508871311514, -2.406867576467229e-08, -1.0125284544467995e-05], [-2.025058919261953e-05, 0.0, 0.0, 2.406868791178638e-08, 94.94508871311517, 0.0], [0.6516731381914258, -0.651673465906491, 0.0, -2.6282778957357017e-08, 7.262861893085678e-07, 65.16439198451816]], 'compliance_tensor': [[5.7, 0.4, -4.7, -0.0, 0.0, 0.0], [0.4, 5.7, -4.7, -0.0, 0.0, 0.0], [-4.7, -4.7, 15.7, -0.0, 0.0, -0.0], [-0.0, -0.0, -0.0, 10.5, -0.0, 0.0], [0.0, 0.0, 0.0, -0.0, 10.5, -0.0], [0.0, 0.0, -0.0, 0.0, -0.0, 15.3]], 'warnings': ['Contains a rare earth element'], 'nsites': 5}",0.0,67.0,115.0,1.49,0.25,167.5
190,mp-569974,Nd(NiP)2,"{'Nd': 1.0, 'Ni': 2.0, 'P': 2.0}",0.18170767049407405,7.231427895525548,"{'G_Reuss': 79.0, 'G_VRH': 82.0, 'G_Voigt': 85.0, 'G_Voigt_Reuss_Hill': 82.0, 'K_Reuss': 126.0, 'K_VRH': 128.0, 'K_Voigt': 129.0, 'K_Voigt_Reuss_Hill': 128.0, 'elastic_anisotropy': 0.38, 'elastic_tensor': [[254.0, 69.0, 85.0, 0.0, 0.0, 0.0], [69.0, 254.0, 85.0, 0.0, 0.0, 0.0], [85.0, 85.0, 175.0, 0.0, 0.0, 0.0], [0.0, 0.0, 0.0, 104.0, 0.0, 0.0], [0.0, 0.0, 0.0, 0.0, 104.0, 0.0], [0.0, 0.0, 0.0, 0.0, 0.0, 68.0]], 'homogeneous_poisson': 0.24, 'poisson_ratio': 0.24, 'universal_anisotropy': 0.38, 'elastic_tensor_original': [[253.8009780398926, 69.2042483476039, 92.69891279240608, 9.600005902199043e-06, -9.600005902199043e-06, 0.0], [69.20424834760394, 253.8009780398926, 92.69891279240605, -9.600005908581085e-06, -9.793784258024558e-06, 0.0], [78.19961467429178, 78.19961467429178, 174.5480402146044, 1.820006043620322e-05, 1.820006043620322e-05, 0.0], [0.0, -2.171880493090444e-07, 0.0, 103.89767779784455, -1.4136825334333973e-06, -1.0859396183535292e-07], [-2.1718805633935273e-07, 0.0, 0.0, 1.4136825329828537e-06, 103.89767779784452, -1.085941652835285e-07], [0.681720622975427, -0.6817206229754256, 0.0, -2.9999642364008806e-07, -2.93893921508553e-07, 68.16782294808131]], 'compliance_tensor': [[4.8, -0.6, -2.0, -0.0, 0.0, 0.0], [-0.6, 4.8, -2.0, 0.0, -0.0, 0.0], [-2.0, -2.0, 7.7, 0.0, 0.0, 0.0], [-0.0, 0.0, 0.0, 9.6, 0.0, 0.0], [0.0, -0.0, 0.0, 0.0, 9.6, 0.0], [0.0, 0.0, 0.0, 0.0, 0.0, 14.7]], 'warnings': ['Contains a rare earth element'], 'nsites': 5}",0.0,82.0,128.0,0.38,0.24,203.35999999999999
191,mp-571147,Hf(SiNi)2,"{'Hf': 1.0, 'Si': 2.0, 'Ni': 2.0}",0.10678576481450368,8.567434555117647,"{'G_Reuss': 75.0, 'G_VRH': 76.0, 'G_Voigt': 78.0, 'G_Voigt_Reuss_Hill': 76.0, 'K_Reuss': 173.0, 'K_VRH': 174.0, 'K_Voigt': 174.0, 'K_Voigt_Reuss_Hill': 174.0, 'elastic_anisotropy': 0.22, 'elastic_tensor': [[246.0, 118.0, 142.0, 0.0, 0.0, 0.0], [118.0, 246.0, 142.0, 0.0, 0.0, 0.0], [142.0, 142.0, 272.0, 0.0, 0.0, 0.0], [0.0, 0.0, 0.0, 91.0, 0.0, 0.0], [0.0, 0.0, 0.0, 0.0, 91.0, 0.0], [0.0, 0.0, 0.0, 0.0, 0.0, 87.0]], 'homogeneous_poisson': 0.31, 'poisson_ratio': 0.31, 'universal_anisotropy': 0.22, 'elastic_tensor_original': [[246.22823817058088, 118.39061943827984, 141.04079930187814, 0.0, 0.0, 0.0], [118.39083775824632, 246.22813141481052, 141.0408730833941, 0.0, 0.0, 0.0], [142.7154514401649, 142.7154514401649, 272.09743603794726, 0.0, 0.0, 0.0], [0.0005233933124772842, -0.00010325205163327438, 0.0003331935815414977, 90.74651565008857, 0.0, 0.0], [0.002017894688248925, 0.001476861716230262, 0.0019403564680048131, 0.0, 90.74649696356815, 0.0], [0.0001191565798595889, 0.0001707833302993166, 0.00013812661276683388, 0.0, 0.0, 86.60986057619357]], 'compliance_tensor': [[6.2, -1.6, -2.4, 0.0, 0.0, 0.0], [-1.6, 6.2, -2.4, 0.0, -0.0, 0.0], [-2.4, -2.4, 6.2, -0.0, -0.0, -0.0], [0.0, 0.0, -0.0, 11.0, 0.0, 0.0], [0.0, -0.0, -0.0, 0.0, 11.0, 0.0], [0.0, 0.0, -0.0, 0.0, 0.0, 11.5]], 'warnings': [], 'nsites': 5}",0.0,76.0,174.0,0.22,0.31,199.12
192,mp-571420,Ba(NiP2)2,"{'Ba': 1.0, 'Ni': 2.0, 'P': 4.0}",0.15906692085720797,4.990560146795294,"{'G_Reuss': 35.0, 'G_VRH': 40.0, 'G_Voigt': 45.0, 'G_Voigt_Reuss_Hill': 40.0, 'K_Reuss': 100.0, 'K_VRH': 100.0, 'K_Voigt': 100.0, 'K_Voigt_Reuss_Hill': 100.0, 'elastic_anisotropy': 1.45, 'elastic_tensor': [[123.0, 86.0, 94.0, 0.0, 0.0, 0.0], [86.0, 169.0, 49.0, 0.0, 0.0, 0.0], [94.0, 49.0, 151.0, 0.0, 0.0, 0.0], [0.0, 0.0, 0.0, 56.0, 0.0, 0.0], [0.0, 0.0, 0.0, 0.0, 59.0, 0.0], [0.0, 0.0, 0.0, 0.0, 0.0, 37.0]], 'homogeneous_poisson': 0.33, 'poisson_ratio': 0.33, 'universal_anisotropy': 1.45, 'elastic_tensor_original': [[123.41770984257002, 64.87084965412451, 83.96753682623515, 2.4200305625721012e-05, 0.0, 0.0], [107.29839935927488, 169.19709239605828, 66.43558718811619, 3.660001090146559e-05, 0.0, 0.0], [103.80230096797837, 32.48902117832263, 150.96303530571333, 3.059994026598929e-05, 0.0, 0.0], [0.0, 1.9219664878859912e-05, 1.7012509796813897e-05, 56.13886491544223, 0.0, 0.0], [0.0, 0.0, 0.0, 4.076021713548339e-08, 58.64343211582424, 1.0038585045759274e-05], [0.0, 0.0, 0.0, -2.5389526124885015e-10, 5.641638789420904e-06, 37.233137048550326]], 'compliance_tensor': [[22.2, -8.0, -11.2, 0.0, -0.0, -0.0], [-8.0, 9.4, 1.9, -0.0, 0.0, -0.0], [-11.2, 1.9, 13.0, -0.0, -0.0, -0.0], [0.0, -0.0, -0.0, 17.8, -0.0, -0.0], [-0.0, 0.0, -0.0, -0.0, 17.1, -0.0], [-0.0, -0.0, -0.0, -0.0, -0.0, 26.9]], 'warnings': [], 'nsites': 7}",0.0,40.0,100.0,1.45,0.33,106.4
193,mp-574235,Yb(NiGe)2,"{'Yb': 1.0, 'Ni': 2.0, 'Ge': 2.0}",0.15498236342471014,8.93121512295805,"{'G_Reuss': 35.0, 'G_VRH': 36.0, 'G_Voigt': 37.0, 'G_Voigt_Reuss_Hill': 36.0, 'K_Reuss': 89.0, 'K_VRH': 91.0, 'K_Voigt': 93.0, 'K_Voigt_Reuss_Hill': 91.0, 'elastic_anisotropy': 0.42, 'elastic_tensor': [[150.0, 33.0, 75.0, 0.0, 0.0, 0.0], [33.0, 150.0, 75.0, 0.0, 0.0, 0.0], [75.0, 75.0, 168.0, 0.0, 0.0, 0.0], [0.0, 0.0, 0.0, 30.0, 0.0, 0.0], [0.0, 0.0, 0.0, 0.0, 30.0, 0.0], [0.0, 0.0, 0.0, 0.0, 0.0, 30.0]], 'homogeneous_poisson': 0.33, 'poisson_ratio': 0.33, 'universal_anisotropy': 0.42, 'elastic_tensor_original': [[150.2358904173982, 33.26829624778743, 68.67065545479048, 6.999841111625803e-06, 0.0, 0.0], [33.268262943432696, 150.235890417085, 68.67062108216514, 6.949427177573197e-06, -1.4088249768696581e-05, 0.0], [81.36009601864784, 81.36013601892809, 168.19079836502357, 1.700011910488531e-05, -3.380023680853667e-05, 0.0], [0.0, -6.13097343821656e-08, 0.0, 30.29126216882914, 9.462440797862528e-08, -3.096175614985528e-06], [-6.192286150293457e-06, 0.0, 0.0, -9.462445533016743e-08, 30.291262168829142, -3.0654564794687164e-08], [0.3030561283923839, -0.3030562800855538, 0.0, 1.391311311889681e-08, -1.3191374560304237e-08, 30.303956571045763]], 'compliance_tensor': [[8.6, 0.0, -3.8, -0.0, 0.0, 0.0], [0.0, 8.6, -3.8, 0.0, 0.0, 0.0], [-3.8, -3.8, 9.4, 0.0, 0.0, 0.0], [-0.0, 0.0, 0.0, 33.0, 0.0, 0.0], [0.0, 0.0, 0.0, 0.0, 33.0, 0.0], [0.0, 0.0, 0.0, 0.0, 0.0, 33.0]], 'warnings': ['Contains a rare earth element'], 'nsites': 5}",0.0,36.0,91.0,0.42,0.33,95.76
194,mp-637771,ZrInNi4,"{'Zr': 1.0, 'In': 1.0, 'Ni': 4.0}",0.1595830511810097,9.03217140906274,"{'G_Reuss': 63.0, 'G_VRH': 65.0, 'G_Voigt': 67.0, 'G_Voigt_Reuss_Hill': 65.0, 'K_Reuss': 161.0, 'K_VRH': 161.0, 'K_Voigt': 161.0, 'K_Voigt_Reuss_Hill': 161.0, 'elastic_anisotropy': 0.3, 'elastic_tensor': [[225.0, 129.0, 129.0, 0.0, 0.0, 0.0], [129.0, 225.0, 129.0, 0.0, 0.0, 0.0], [129.0, 129.0, 225.0, 0.0, 0.0, 0.0], [0.0, 0.0, 0.0, 79.0, 0.0, 0.0], [0.0, 0.0, 0.0, 0.0, 79.0, 0.0], [0.0, 0.0, 0.0, 0.0, 0.0, 79.0]], 'homogeneous_poisson': 0.32, 'poisson_ratio': 0.32, 'universal_anisotropy': 0.3, 'elastic_tensor_original': [[224.89204562004343, 128.35058850253185, 128.35058850253185, 0.0, 0.0, 0.0], [128.43327338130976, 225.00621538998416, 128.43327338130976, 0.0, 0.0, 0.0], [129.3020616622244, 129.3020616622244, 225.29433882196278, 0.0, 0.0, 0.0], [-0.016183018057698367, -0.014105444973715056, -0.01714231794256179, 79.19328701848022, 0.0, 0.0], [0.027234050064678064, 0.02898508318784985, 0.04271169487370286, 0.0, 79.19110008207603, 0.0], [0.001994839760579031, 0.002014293091576814, 0.0019832464286358748, 0.0, 0.0, 79.18739431585414]], 'compliance_tensor': [[7.6, -2.8, -2.8, -0.0, 0.0, 0.0], [-2.8, 7.6, -2.8, -0.0, -0.0, 0.0], [-2.8, -2.8, 7.6, 0.0, -0.0, -0.0], [-0.0, -0.0, 0.0, 12.6, -0.0, -0.0], [0.0, -0.0, -0.0, -0.0, 12.6, 0.0], [0.0, 0.0, -0.0, -0.0, 0.0, 12.6]], 'warnings': [], 'nsites': 6}",0.0,65.0,161.0,0.3,0.32,171.6
195,mp-7187,TiAlNi2,"{'Ti': 1.0, 'Al': 1.0, 'Ni': 2.0}",0.14242779857361934,6.253223227274053,"{'G_Reuss': 50.0, 'G_VRH': 59.0, 'G_Voigt': 68.0, 'G_Voigt_Reuss_Hill': 59.0, 'K_Reuss': 162.0, 'K_VRH': 162.0, 'K_Voigt': 162.0, 'K_Voigt_Reuss_Hill': 162.0, 'elastic_anisotropy': 1.72, 'elastic_tensor': [[202.0, 142.0, 142.0, 0.0, 0.0, 0.0], [142.0, 202.0, 142.0, 0.0, 0.0, 0.0], [142.0, 142.0, 202.0, 0.0, 0.0, 0.0], [0.0, 0.0, 0.0, 93.0, 0.0, 0.0], [0.0, 0.0, 0.0, 0.0, 93.0, 0.0], [0.0, 0.0, 0.0, 0.0, 0.0, 93.0]], 'homogeneous_poisson': 0.34, 'poisson_ratio': 0.34, 'universal_anisotropy': 1.72, 'elastic_tensor_original': [[202.58630228307763, 142.6604851159621, 142.6604851159621, 0.0, 0.0, 0.0], [145.36995666685343, 203.82295527910813, 145.36995666685343, 0.0, 0.0, 0.0], [137.8065285821229, 137.8065285821229, 198.48486135725474, 0.0, 0.0, 0.0], [0.00010412960513031686, 8.009289202845766e-05, 8.008955636888931e-05, 92.92457591653844, 0.0, 0.0], [-0.0006961097389803111, -0.0005983930488967482, -0.0007030464180380263, 0.0, 92.9247416499191, 0.0], [0.00023296995353794928, 0.00022136996249630075, 0.0002162399527037002, 0.0, 0.0, 92.92493233951076]], 'compliance_tensor': [[11.9, -4.9, -4.9, -0.0, 0.0, -0.0], [-4.9, 11.9, -4.9, -0.0, -0.0, 0.0], [-4.9, -4.9, 11.9, 0.0, -0.0, -0.0], [-0.0, -0.0, 0.0, 10.8, -0.0, -0.0], [0.0, -0.0, -0.0, -0.0, 10.8, -0.0], [-0.0, 0.0, -0.0, -0.0, -0.0, 10.8]], 'warnings': [], 'nsites': 4}",0.0,59.0,162.0,1.72,0.34,158.12
196,mp-864807,HfZnNi2,"{'Hf': 1.0, 'Zn': 1.0, 'Ni': 2.0}",0.15815597147620028,10.75546821566332,"{'G_Reuss': 46.0, 'G_VRH': 49.0, 'G_Voigt': 52.0, 'G_Voigt_Reuss_Hill': 49.0, 'K_Reuss': 151.0, 'K_VRH': 151.0, 'K_Voigt': 151.0, 'K_Voigt_Reuss_Hill': 151.0, 'elastic_anisotropy': 0.67, 'elastic_tensor': [[193.0, 129.0, 129.0, 0.0, 0.0, 0.0], [129.0, 193.0, 129.0, 0.0, 0.0, 0.0], [129.0, 129.0, 193.0, 0.0, 0.0, 0.0], [0.0, 0.0, 0.0, 66.0, 0.0, 0.0], [0.0, 0.0, 0.0, 0.0, 66.0, 0.0], [0.0, 0.0, 0.0, 0.0, 0.0, 66.0]], 'homogeneous_poisson': 0.35, 'poisson_ratio': 0.35, 'universal_anisotropy': 0.67, 'elastic_tensor_original': [[192.68780871104426, 129.43836134205912, 129.43836134205912, 0.0, 0.0, 0.0], [129.5101152854996, 192.75943033132805, 129.5101152854996, 0.0, 0.0, 0.0], [129.50194348011226, 129.50194348011226, 192.7509169015177, 0.0, 0.0, 0.0], [-0.0010703471529856408, -0.0010380504716464118, -0.0010808204910795719, 65.54228865300814, 0.0, 0.0], [0.0014096639738258485, 0.0014499739921420953, 0.0014121773083010161, 0.0, 65.54218210295971, 0.0], [0.0005819602644197699, 0.000587770267058294, 0.0005747769278226778, 0.0, 0.0, 65.54272001987081]], 'compliance_tensor': [[11.3, -4.5, -4.5, -0.0, -0.0, -0.0], [-4.5, 11.3, -4.5, 0.0, 0.0, -0.0], [-4.5, -4.5, 11.3, 0.0, -0.0, 0.0], [-0.0, 0.0, 0.0, 15.3, 0.0, 0.0], [-0.0, 0.0, -0.0, 0.0, 15.3, -0.0], [-0.0, -0.0, 0.0, 0.0, -0.0, 15.3]], 'warnings': [], 'nsites': 4}",0.0,49.0,151.0,0.67,0.35,132.3
197,mp-865092,MgGaNi2,"{'Mg': 1.0, 'Ga': 1.0, 'Ni': 2.0}",0.15293161854454884,6.797844449350319,"{'G_Reuss': 18.0, 'G_VRH': 35.0, 'G_Voigt': 53.0, 'G_Voigt_Reuss_Hill': 35.0, 'K_Reuss': 124.0, 'K_VRH': 124.0, 'K_Voigt': 124.0, 'K_Voigt_Reuss_Hill': 124.0, 'elastic_anisotropy': 9.67, 'elastic_tensor': [[135.0, 118.0, 118.0, 0.0, 0.0, 0.0], [118.0, 135.0, 118.0, 0.0, 0.0, 0.0], [118.0, 118.0, 135.0, 0.0, 0.0, 0.0], [0.0, 0.0, 0.0, 82.0, 0.0, 0.0], [0.0, 0.0, 0.0, 0.0, 82.0, 0.0], [0.0, 0.0, 0.0, 0.0, 0.0, 82.0]], 'homogeneous_poisson': 0.37, 'poisson_ratio': 0.37, 'universal_anisotropy': 9.67, 'elastic_tensor_original': [[134.13597947868504, 119.41576551137045, 119.41576551137045, 0.0, 0.0, 0.0], [117.78508954894424, 135.23946358752764, 117.78508954894424, 0.0, 0.0, 0.0], [117.7893840442895, 117.7893840442895, 135.24404760784142, 0.0, 0.0, 0.0], [-0.0013668169524892828, -0.0012675669317341097, -0.0013376569463930009, 82.34639290334582, 0.0, 0.0], [9.89700206976331e-05, -0.0005834534553407659, 9.391668630632487e-05, 0.0, 82.34520832309808, 0.0], [6.706001402604698e-05, 7.035668137971716e-05, -0.0007916734988845231, 0.0, 0.0, 82.34572926987369]], 'compliance_tensor': [[41.2, -19.3, -19.3, 0.0, 0.0, -0.0], [-19.3, 41.2, -19.3, -0.0, 0.0, 0.0], [-19.3, -19.3, 41.2, 0.0, -0.0, 0.0], [0.0, -0.0, 0.0, 12.1, -0.0, -0.0], [0.0, 0.0, -0.0, -0.0, 12.1, -0.0], [-0.0, 0.0, 0.0, -0.0, -0.0, 12.1]], 'warnings': [], 'nsites': 4}",0.0,35.0,124.0,9.67,0.37,95.9