,mp_id,Formula,Composition,IPF,Density,Elastic_Tensor,E_above_Hull,G_VRH,K_VRH,Elastic_Anisotropy,poisson_ratio,Y_Modulus
328,mp-21301,ScInNi2,"{'Sc': 1.0, 'In': 1.0, 'Ni': 2.0}",0.15798548931190104,7.436590474034622,"{'G_Reuss': 44.0, 'G_VRH': 49.0, 'G_Voigt': 53.0, 'G_Voigt_Reuss_Hill': 49.0, 'K_Reuss': 118.0, 'K_VRH': 118.0, 'K_Voigt': 118.0, 'K_Voigt_Reuss_Hill': 118.0, 'elastic_anisotropy': 1.05, 'elastic_tensor': [[156.0, 99.0, 99.0, 0.0, 0.0, 0.0], [99.0, 156.0, 99.0, 0.0, 0.0, 0.0], [99.0, 99.0, 156.0, 0.0, 0.0, 0.0], [0.0, 0.0, 0.0, 70.0, 0.0, 0.0], [0.0, 0.0, 0.0, 0.0, 70.0, 0.0], [0.0, 0.0, 0.0, 0.0, 0.0, 70.0]], 'homogeneous_poisson': 0.32, 'poisson_ratio': 0.32, 'universal_anisotropy': 1.05, 'elastic_tensor_original': [[154.47173576966142, 99.67677686368776, 99.67677686368776, 0.0, 0.0, 0.0], [99.23346354482463, 156.6648687461141, 99.23346354482463, 0.0, 0.0, 0.0], [99.20926030244631, 99.20926030244631, 156.64073467260127, 0.0, 0.0, 0.0], [-4.1936636288973855e-05, -6.4866619659558115e-06, -5.09332964414834e-06, 69.81164923300362, 0.0, 0.0], [0.00014087656462526507, 0.0002835164613070293, 0.00020699651673209552, 0.0, 69.81163051301718, 0.0], [0.00037248973019433137, 0.00039042971719818173, 0.0003946430474814426, 0.0, 0.0, 69.81177697624443]], 'compliance_tensor': [[12.7, -5.0, -5.0, -0.0, 0.0, 0.0], [-5.0, 12.7, -5.0, 0.0, -0.0, 0.0], [-5.0, -5.0, 12.7, 0.0, 0.0, -0.0], [-0.0, 0.0, 0.0, 14.3, 0.0, -0.0], [0.0, -0.0, 0.0, 0.0, 14.3, -0.0], [0.0, 0.0, -0.0, -0.0, -0.0, 14.3]], 'warnings': [], 'nsites': 4}",0.0,49.0,118.0,1.05,0.32,129.36
329,mp-22159,UNiAs2,"{'U': 1.0, 'Ni': 1.0, 'As': 2.0}",0.11445381057859855,10.36831095915653,"{'G_Reuss': 52.0, 'G_VRH': 53.0, 'G_Voigt': 54.0, 'G_Voigt_Reuss_Hill': 53.0, 'K_Reuss': 111.0, 'K_VRH': 112.0, 'K_Voigt': 113.0, 'K_Voigt_Reuss_Hill': 112.0, 'elastic_anisotropy': 0.18, 'elastic_tensor': [[192.0, 83.0, 81.0, 0.0, 0.0, 0.0], [83.0, 192.0, 81.0, 0.0, 0.0, 0.0], [81.0, 81.0, 142.0, 0.0, 0.0, 0.0], [0.0, 0.0, 0.0, 60.0, 0.0, 0.0], [0.0, 0.0, 0.0, 0.0, 60.0, 0.0], [0.0, 0.0, 0.0, 0.0, 0.0, 56.0]], 'homogeneous_poisson': 0.3, 'poisson_ratio': 0.3, 'universal_anisotropy': 0.18, 'elastic_tensor_original': [[192.0790290238632, 83.15006134526848, 90.50697191829678, 0.0, 0.0, 0.0], [83.15006134526848, 192.0790290238632, 90.50697191829678, 0.0, 0.0, 0.0], [72.3249595521958, 72.3249595521958, 142.4996104004264, 0.0, 0.0, 0.0], [0.0, 0.0, 0.0, 59.75709862645943, 0.0, 0.0], [0.0, 0.0, 0.0, 0.0, 59.75709862645943, 0.0], [0.5568548122286214, -0.5568548122286224, 0.0, 0.0, 0.0, 55.682727928735]], 'compliance_tensor': [[7.3, -1.8, -3.1, 0.0, 0.0, 0.0], [-1.8, 7.3, -3.1, 0.0, 0.0, -0.0], [-3.1, -3.1, 10.6, 0.0, 0.0, 0.0], [0.0, 0.0, 0.0, 16.7, 0.0, 0.0], [0.0, 0.0, 0.0, 0.0, 16.7, 0.0], [0.0, -0.0, 0.0, 0.0, 0.0, 18.0]], 'warnings': ['Contains a rare earth element'], 'nsites': 8}",0.0,53.0,112.0,0.18,0.3,137.8
330,mp-22950,CsNiCl3,"{'Cs': 1.0, 'Ni': 1.0, 'Cl': 3.0}",0.23513732144887423,3.579747091353935,"{'G_Reuss': 6.0, 'G_VRH': 7.0, 'G_Voigt': 8.0, 'G_Voigt_Reuss_Hill': 7.0, 'K_Reuss': 14.0, 'K_VRH': 15.0, 'K_Voigt': 15.0, 'K_Voigt_Reuss_Hill': 15.0, 'elastic_anisotropy': 2.07, 'elastic_tensor': [[24.0, 9.0, 5.0, 0.0, 0.0, 0.0], [9.0, 24.0, 5.0, 0.0, 0.0, 0.0], [5.0, 5.0, 48.0, 0.0, 0.0, 0.0], [0.0, 0.0, 0.0, 4.0, 0.0, 0.0], [0.0, 0.0, 0.0, 0.0, 4.0, 0.0], [0.0, 0.0, 0.0, 0.0, 0.0, 8.0]], 'homogeneous_poisson': 0.29, 'poisson_ratio': 0.29, 'universal_anisotropy': 2.07, 'elastic_tensor_original': [[25.206741938539764, 8.241147861388853, 6.0397563172818165, 0.0, 0.0, 0.0], [8.347062421310095, 24.105816714255514, 5.598092705745501, 0.0, 0.0, 0.0], [5.138585373922486, 5.138585073876172, 48.26212332818705, 0.0, 0.0, 0.0], [0.00031745630490023167, 0.000319356302735081, 0.00031041964625245, 3.7995133001554344, 0.0, 0.0], [-0.00013094666944454535, -6.367668850168677e-05, -8.424000885514144e-05, 0.0, 3.6345558303789476, 0.0], [-4.890019452964262e-05, -1.7346848512608967e-05, -2.3380176168465832e-05, 0.0, 0.0, 7.718189734481963]], 'compliance_tensor': [[47.2, -15.7, -3.6, 0.0, -0.0, -0.0], [-15.7, 47.2, -3.6, -0.0, -0.0, -0.0], [-3.6, -3.6, 21.5, 0.0, 0.0, 0.0], [0.0, -0.0, 0.0, 269.0, -0.0, -0.0], [-0.0, -0.0, 0.0, -0.0, 269.0, 0.0], [-0.0, -0.0, 0.0, -0.0, -0.0, 125.8]], 'warnings': [], 'nsites': 10}",0.0,7.0,15.0,2.07,0.29,18.060000000000002
331,mp-30774,MgNi2Sn,"{'Mg': 1.0, 'Ni': 2.0, 'Sn': 1.0}",0.1443739017761579,7.3843006944480605,"{'G_Reuss': 36.0, 'G_VRH': 45.0, 'G_Voigt': 55.0, 'G_Voigt_Reuss_Hill': 45.0, 'K_Reuss': 114.0, 'K_VRH': 114.0, 'K_Voigt': 114.0, 'K_Voigt_Reuss_Hill': 114.0, 'elastic_anisotropy': 2.62, 'elastic_tensor': [[141.0, 101.0, 101.0, 0.0, 0.0, 0.0], [101.0, 141.0, 101.0, 0.0, 0.0, 0.0], [101.0, 101.0, 141.0, 0.0, 0.0, 0.0], [0.0, 0.0, 0.0, 78.0, 0.0, 0.0], [0.0, 0.0, 0.0, 0.0, 78.0, 0.0], [0.0, 0.0, 0.0, 0.0, 0.0, 78.0]], 'homogeneous_poisson': 0.33, 'poisson_ratio': 0.33, 'universal_anisotropy': 2.62, 'elastic_tensor_original': [[140.92028355081735, 101.28413122401574, 101.28413122401574, 0.0, 0.0, 0.0], [101.27174826041853, 140.907506660678, 101.27174826041853, 0.0, 0.0, 0.0], [101.26994046957826, 101.26994046957826, 140.9053733870491, 0.0, 0.0, 0.0], [-0.00016708663425333778, 0.000506936558424712, 0.0005550532131795228, 77.77299901122619, 0.0, 0.0], [-4.194317701644875e-05, -5.463981856877401e-05, -2.6489851232058833e-05, 0.0, 77.77314352412986, 0.0], [-0.00013038672102852548, -0.00013306338365664982, 0.0001812865432836956, 0.0, 0.0, 77.77274271788406]], 'compliance_tensor': [[17.8, -7.4, -7.4, 0.0, -0.0, 0.0], [-7.4, 17.8, -7.4, 0.0, 0.0, -0.0], [-7.4, -7.4, 17.8, -0.0, 0.0, 0.0], [0.0, 0.0, -0.0, 12.9, -0.0, -0.0], [-0.0, 0.0, 0.0, -0.0, 12.9, -0.0], [0.0, -0.0, 0.0, -0.0, -0.0, 12.9]], 'warnings': [], 'nsites': 4}",0.0,45.0,114.0,2.62,0.33,119.7
332,mp-31136,Lu2NiSn6,"{'Lu': 2.0, 'Ni': 1.0, 'Sn': 6.0}",0.11392423377149291,8.66524008954825,"{'G_Reuss': 38.0, 'G_VRH': 39.0, 'G_Voigt': 39.0, 'G_Voigt_Reuss_Hill': 39.0, 'K_Reuss': 65.0, 'K_VRH': 65.0, 'K_Voigt': 66.0, 'K_Voigt_Reuss_Hill': 65.0, 'elastic_anisotropy': 0.14, 'elastic_tensor': [[106.0, 36.0, 51.0, 0.0, 0.0, 0.0], [36.0, 107.0, 40.0, 0.0, 0.0, 0.0], [51.0, 40.0, 126.0, 0.0, 0.0, 0.0], [0.0, 0.0, 0.0, 39.0, 0.0, 0.0], [0.0, 0.0, 0.0, 0.0, 50.0, 0.0], [0.0, 0.0, 0.0, 0.0, 0.0, 35.0]], 'homogeneous_poisson': 0.25, 'poisson_ratio': 0.25, 'universal_anisotropy': 0.14, 'elastic_tensor_original': [[106.31163828508494, 36.07086375936365, 53.72936796644618, 0.0, 0.0, 0.0], [35.669943015237365, 107.21463859893777, 41.06415832102276, 0.0, 0.0, 0.0], [48.503692660391785, 38.39791335753688, 126.49766899583807, 1.7999970259778475e-06, 0.0, 0.0], [0.0, 0.0, 3.5056577356644214e-06, 39.31766862448762, 0.0, 0.0], [0.0, 0.0, 0.0, 0.0, 50.123471400681666, 0.0], [0.0, 0.0, 0.0, 0.0, 0.0, 34.93281247109421]], 'compliance_tensor': [[12.3, -2.6, -4.2, -0.0, 0.0, 0.0], [-2.6, 11.1, -2.4, 0.0, 0.0, 0.0], [-4.2, -2.4, 10.4, 0.0, 0.0, 0.0], [-0.0, 0.0, 0.0, 25.4, 0.0, 0.0], [0.0, 0.0, 0.0, 0.0, 20.0, 0.0], [0.0, 0.0, 0.0, 0.0, 0.0, 28.6]], 'warnings': ['Contains a rare earth element'], 'nsites': 9}",0.6964620370357721,39.0,65.0,0.14,0.25,97.5
333,mp-3329,Tb(NiGe)2,"{'Tb': 1.0, 'Ni': 2.0, 'Ge': 2.0}",0.13738857191500983,8.602990275889171,"{'G_Reuss': 45.0, 'G_VRH': 47.0, 'G_Voigt': 48.0, 'G_Voigt_Reuss_Hill': 47.0, 'K_Reuss': 121.0, 'K_VRH': 121.0, 'K_Voigt': 121.0, 'K_Voigt_Reuss_Hill': 121.0, 'elastic_anisotropy': 0.26, 'elastic_tensor': [[200.0, 63.0, 95.0, 0.0, 0.0, 0.0], [63.0, 200.0, 95.0, 0.0, 0.0, 0.0], [95.0, 95.0, 179.0, 0.0, 0.0, 0.0], [0.0, 0.0, 0.0, 48.0, 0.0, 0.0], [0.0, 0.0, 0.0, 0.0, 48.0, 0.0], [0.0, 0.0, 0.0, 0.0, 0.0, 35.0]], 'homogeneous_poisson': 0.33, 'poisson_ratio': 0.33, 'universal_anisotropy': 0.26, 'elastic_tensor_original': [[200.09129845321476, 63.22583406146047, 98.61318970785622, 0.0, 9.999809553226937e-06, 0.0], [63.22583406145915, 200.09129845321058, 98.61318970785418, -1.0076841824420944e-05, 0.0, 0.0], [92.00469097116816, 92.00469097116816, 179.1322488112239, 0.0, 3.619943688004153e-05, 0.0], [0.0, -9.740741002074836e-06, 0.0, 47.84514589936827, -1.0539161984006445e-07, 4.8703470546932325e-06], [9.740740995289887e-06, 0.0, 0.0, 1.053916198339175e-07, 47.84514589936826, -4.870394698207398e-06], [0.3494465637039937, -0.34944656370616634, 0.0, -1.3881826013846332e-07, -1.0000057625886695e-07, 34.94310606157464]], 'compliance_tensor': [[6.7, -0.6, -3.3, -0.0, -0.0, -0.0], [-0.6, 6.7, -3.3, 0.0, 0.0, -0.0], [-3.3, -3.3, 9.1, 0.0, -0.0, -0.0], [-0.0, 0.0, 0.0, 20.9, -0.0, -0.0], [-0.0, 0.0, -0.0, -0.0, 20.9, 0.0], [-0.0, -0.0, -0.0, -0.0, 0.0, 28.6]], 'warnings': ['Contains a rare earth element'], 'nsites': 5}",0.0,47.0,121.0,0.26,0.33,125.02000000000001
334,mp-3830,NiAsS,"{'Ni': 1.0, 'As': 1.0, 'S': 1.0}",0.12459712849820558,5.955129152509883,"{'G_Reuss': 58.0, 'G_VRH': 59.0, 'G_Voigt': 59.0, 'G_Voigt_Reuss_Hill': 59.0, 'K_Reuss': 109.0, 'K_VRH': 109.0, 'K_Voigt': 109.0, 'K_Voigt_Reuss_Hill': 109.0, 'elastic_anisotropy': 0.14, 'elastic_tensor': [[205.0, 61.0, 61.0, 0.0, 0.0, 0.0], [61.0, 205.0, 61.0, 0.0, 0.0, 0.0], [61.0, 61.0, 205.0, 0.0, 0.0, 0.0], [0.0, 0.0, 0.0, 51.0, 0.0, 0.0], [0.0, 0.0, 0.0, 0.0, 51.0, 0.0], [0.0, 0.0, 0.0, 0.0, 0.0, 51.0]], 'homogeneous_poisson': 0.27, 'poisson_ratio': 0.27, 'universal_anisotropy': 0.14, 'elastic_tensor_original': [[206.43196272094886, 63.03187876729529, 62.931173114367624, 0.0, 0.0, 0.0], [60.11444229461107, 203.98777658689605, 60.265494251514504, 0.0, 0.0, 0.0], [60.264285752258886, 60.11229590081803, 203.9863360024436, 0.0, 0.0, 0.0], [0.0018177092524519099, 0.0018081025897362648, 0.001778219268692684, 51.27620067890043, 0.0, 0.0], [-0.0002606498928052383, -0.00023263657099299975, -0.00021396324533902035, 0.0, 51.00887507217364, 0.0], [-0.0008058530019192006, -0.0006958097138419703, -0.0007857930101693679, 0.0, 0.0, 51.27608686561388]], 'compliance_tensor': [[5.7, -1.3, -1.3, 0.0, 0.0, 0.0], [-1.3, 5.7, -1.3, 0.0, 0.0, 0.0], [-1.3, -1.3, 5.7, 0.0, 0.0, 0.0], [0.0, 0.0, 0.0, 19.5, 0.0, 0.0], [0.0, 0.0, 0.0, 0.0, 19.5, 0.0], [0.0, 0.0, 0.0, 0.0, 0.0, 19.5]], 'warnings': [], 'nsites': 12}",0.0,59.0,109.0,0.14,0.27,149.86
335,mp-4071,Er2(NiB2)3,"{'Er': 2.0, 'Ni': 3.0, 'B': 6.0}",0.1398200635361518,8.361676527106088,"{'G_Reuss': 137.0, 'G_VRH': 138.0, 'G_Voigt': 139.0, 'G_Voigt_Reuss_Hill': 138.0, 'K_Reuss': 176.0, 'K_VRH': 176.0, 'K_Voigt': 176.0, 'K_Voigt_Reuss_Hill': 176.0, 'elastic_anisotropy': 0.07, 'elastic_tensor': [[330.0, 96.0, 99.0, 0.0, 0.0, 0.0], [96.0, 387.0, 73.0, 0.0, 0.0, 0.0], [99.0, 73.0, 332.0, 0.0, 0.0, 0.0], [0.0, 0.0, 0.0, 142.0, 0.0, 0.0], [0.0, 0.0, 0.0, 0.0, 160.0, 0.0], [0.0, 0.0, 0.0, 0.0, 0.0, 134.0]], 'homogeneous_poisson': 0.19, 'poisson_ratio': 0.19, 'universal_anisotropy': 0.07, 'elastic_tensor_original': [[330.4776488377, 97.35650704397233, 107.30017126863021, 0.0, 0.0, 0.0], [95.39003525631426, 386.96424975662524, 79.52657368969116, 0.0, 0.0, 0.0], [91.13428981835688, 66.67253371237119, 332.09415083087026, 0.0, 0.0, 0.0], [0.0, 0.0, 0.0, 141.73894496258856, 0.0, 0.0], [0.0, 0.0, 0.0, 0.0, 159.76578246266325, 0.0], [0.0, 0.0, 0.0, 0.0, 0.0, 134.07915650272085]], 'compliance_tensor': [[3.4982608335845744, -0.7030395284342399, -0.8903977234302483, 0.0, 0.0, -2.494805480509352e-16], [-0.70303952843424, 2.8376236487330257, -0.41456733572565235, 0.0, 0.0, -2.399685676839678e-16], [-0.8903977234302481, -0.4145673357256524, 3.3684648784773668, 0.0, 0.0, 2.443346691462373e-17], [0.0, 0.0, 0.0, 7.055223956012556, -3.133058165323282e-16, 0.0], [0.0, 0.0, 0.0, -3.1330581653232826e-16, 6.25916253521743, 0.0], [-2.494805480509354e-16, -2.3996856768396773e-16, 2.443346691462377e-17, 0.0, 0.0, 7.4582808102593265]], 'warnings': ['Structure contains a rare earth element'], 'nsites': 11}",0.0,138.0,176.0,0.07,0.19,328.44
336,mp-4510,DyNiSb,"{'Dy': 1.0, 'Ni': 1.0, 'Sb': 1.0}",0.1587391404288426,8.904165290151344,"{'G_Reuss': 55.0, 'G_VRH': 56.0, 'G_Voigt': 57.0, 'G_Voigt_Reuss_Hill': 56.0, 'K_Reuss': 62.0, 'K_VRH': 62.0, 'K_Voigt': 62.0, 'K_Voigt_Reuss_Hill': 62.0, 'elastic_anisotropy': 0.17, 'elastic_tensor': [[155.0, 15.0, 15.0, 0.0, 0.0, 0.0], [15.0, 155.0, 15.0, 0.0, 0.0, 0.0], [15.0, 15.0, 155.0, 0.0, 0.0, 0.0], [0.0, 0.0, 0.0, 48.0, 0.0, 0.0], [0.0, 0.0, 0.0, 0.0, 48.0, 0.0], [0.0, 0.0, 0.0, 0.0, 0.0, 48.0]], 'homogeneous_poisson': 0.15, 'poisson_ratio': 0.15, 'universal_anisotropy': 0.17, 'elastic_tensor_original': [[154.99714485716223, 15.008002062000593, 15.008002062000593, 0.0, 0.0, 0.0], [15.008002062000593, 154.99714485716223, 15.008002062000593, 0.0, 0.0, 0.0], [15.008002062000593, 15.008002062000593, 154.99714485716223, 0.0, 0.0, 0.0], [0.0, 0.0, 0.0, 48.18213742135503, 0.0, 0.0], [0.0, 0.0, 0.0, 0.0, 48.18213742135503, 0.0], [0.0, 0.0, 0.0, 0.0, 0.0, 48.18213742135503]], 'compliance_tensor': [[6.6, -0.6, -0.6, 0.0, -0.0, 0.0], [-0.6, 6.6, -0.6, -0.0, 0.0, -0.0], [-0.6, -0.6, 6.6, -0.0, -0.0, 0.0], [0.0, -0.0, -0.0, 20.8, 0.0, -0.0], [-0.0, 0.0, -0.0, 0.0, 20.8, -0.0], [0.0, -0.0, 0.0, -0.0, -0.0, 20.8]], 'warnings': ['Contains a rare earth element'], 'nsites': 3}",0.0,56.0,62.0,0.17,0.15,128.79999999999998
337,mp-4813,NbAlNi2,"{'Nb': 1.0, 'Al': 1.0, 'Ni': 2.0}",0.12978147293857448,7.312634988033594,"{'G_Reuss': 34.0, 'G_VRH': 45.0, 'G_Voigt': 56.0, 'G_Voigt_Reuss_Hill': 45.0, 'K_Reuss': 181.0, 'K_VRH': 181.0, 'K_Voigt': 181.0, 'K_Voigt_Reuss_Hill': 181.0, 'elastic_anisotropy': 3.21, 'elastic_tensor': [[205.0, 168.0, 168.0, 0.0, 0.0, 0.0], [168.0, 205.0, 168.0, 0.0, 0.0, 0.0], [168.0, 168.0, 205.0, 0.0, 0.0, 0.0], [0.0, 0.0, 0.0, 81.0, 0.0, 0.0], [0.0, 0.0, 0.0, 0.0, 81.0, 0.0], [0.0, 0.0, 0.0, 0.0, 0.0, 81.0]], 'homogeneous_poisson': 0.39, 'poisson_ratio': 0.39, 'universal_anisotropy': 3.21, 'elastic_tensor_original': [[204.96671676660893, 168.66303149075677, 168.66303149075677, 0.0, 0.0, 0.0], [168.41730839601001, 204.72434256262991, 168.41730839601001, 0.0, 0.0, 0.0], [168.31991038194573, 168.31991038194573, 204.62780168131667, 0.0, 0.0, 0.0], [0.0014349420034375044, 0.0014183586854723596, 0.0014526519870223977, 80.72165254089327, 0.0, 0.0], [2.116331371949628e-05, 6.018661088714563e-05, -1.53133191410193e-05, 0.0, 80.72150213103268, 0.0], [0.0024053144374345066, 0.002451751061062009, 0.00247501437283525, 0.0, 0.0, 80.72184490404833]], 'compliance_tensor': [[19.0, -8.6, -8.6, 0.0, 0.0, -0.0], [-8.6, 19.0, -8.6, -0.0, 0.0, 0.0], [-8.6, -8.6, 19.0, 0.0, -0.0, 0.0], [0.0, -0.0, 0.0, 12.4, -0.0, -0.0], [0.0, 0.0, -0.0, -0.0, 12.4, -0.0], [-0.0, 0.0, 0.0, -0.0, -0.0, 12.4]], 'warnings': [], 'nsites': 4}",0.0,45.0,181.0,3.21,0.39,125.10000000000001
338,mp-510409,TiSiNi,"{'Ti': 1.0, 'Si': 1.0, 'Ni': 1.0}",0.1254074766895259,5.670689314807067,"{'G_Reuss': 102.0, 'G_VRH': 104.0, 'G_Voigt': 106.0, 'G_Voigt_Reuss_Hill': 104.0, 'K_Reuss': 176.0, 'K_VRH': 177.0, 'K_Voigt': 177.0, 'K_Voigt_Reuss_Hill': 177.0, 'elastic_anisotropy': 0.19, 'elastic_tensor': [[287.0, 98.0, 124.0, 0.0, 0.0, 0.0], [98.0, 326.0, 130.0, 0.0, 0.0, 0.0], [124.0, 130.0, 274.0, 0.0, 0.0, 0.0], [0.0, 0.0, 0.0, 114.0, 0.0, 0.0], [0.0, 0.0, 0.0, 0.0, 129.0, 0.0], [0.0, 0.0, 0.0, 0.0, 0.0, 108.0]], 'homogeneous_poisson': 0.25, 'poisson_ratio': 0.25, 'universal_anisotropy': 0.19, 'elastic_tensor_original': [[274.2422296227419, 126.1100543783054, 130.79798210494258, 0.0, 0.0, 0.0], [121.99432931829597, 287.03525541790793, 94.82128989684612, 0.0, 0.0, 0.0], [129.28788649573247, 100.9927234574773, 325.98136508993196, 0.0, 0.0, 0.0], [5.579994483576002e-06, -4.718662001486288e-05, 9.003324432034277e-06, 107.93556130988463, 0.0, 0.0], [-0.006335508539967311, -0.006099911544535194, -0.005828981693315498, 0.0, 113.69091086335727, 0.0], [-0.0015113361236548564, -0.0017826825557135967, -0.0019234056202885458, 0.0, 0.0, 129.41134001204784]], 'compliance_tensor': [[4.4, -0.7, -1.7, 0.0, -0.0, 0.0], [-0.7, 3.9, -1.5, 0.0, 0.0, 0.0], [-1.7, -1.5, 5.1, 0.0, 0.0, 0.0], [0.0, 0.0, 0.0, 8.8, 0.0, 0.0], [-0.0, 0.0, 0.0, 0.0, 7.7, 0.0], [0.0, 0.0, 0.0, 0.0, 0.0, 9.3]], 'warnings': [], 'nsites': 12}",0.0,104.0,177.0,0.19,0.25,260.0
339,mp-557772,CsNiF3,"{'Cs': 1.0, 'Ni': 1.0, 'F': 3.0}",0.33643812017396457,4.488869301240814,"{'G_Reuss': 5.0, 'G_VRH': 8.0, 'G_Voigt': 12.0, 'G_Voigt_Reuss_Hill': 8.0, 'K_Reuss': 24.0, 'K_VRH': 25.0, 'K_Voigt': 26.0, 'K_Voigt_Reuss_Hill': 25.0, 'elastic_anisotropy': 7.3, 'elastic_tensor': [[39.0, 17.0, 10.0, 0.0, 0.0, 0.0], [17.0, 39.0, 10.0, 0.0, 0.0, 0.0], [10.0, 10.0, 85.0, 0.0, 0.0, 0.0], [0.0, 0.0, 0.0, 2.0, 0.0, 0.0], [0.0, 0.0, 0.0, 0.0, 2.0, 0.0], [0.0, 0.0, 0.0, 0.0, 0.0, 11.0]], 'homogeneous_poisson': 0.35, 'poisson_ratio': 0.35, 'universal_anisotropy': 7.3, 'elastic_tensor_original': [[38.63173954412541, 16.751012233721703, 9.240899561188671, 0.0, 0.0, 0.0], [15.938609248388431, 39.53461270657, 9.159485650643003, 0.0, 0.0, 0.0], [9.942746959826628, 9.942748600203, 85.22499263703898, 0.0, 0.0, 0.0], [-2.3666660912144083e-07, -3.5666657998169627e-07, 2.0599995001456207e-06, 2.405723062592863, 0.0, 0.0], [1.9463354648580532e-05, 1.966657938819996e-07, 1.7636672146087197e-05, 0.0, 2.3874289881670423, 0.0], [3.8013396903046104e-05, 0.00018132979181448658, 0.00015490993078312723, 0.0, 0.0, 10.864721029637177]], 'compliance_tensor': [[31.9, -13.1, -2.1, -0.0, 0.0, -0.0], [-13.1, 31.9, -2.1, -0.0, -0.0, -0.0], [-2.1, -2.1, 12.2, 0.0, -0.0, 0.0], [-0.0, -0.0, 0.0, 417.3, -0.0, -0.0], [0.0, -0.0, -0.0, -0.0, 417.3, -0.0], [-0.0, -0.0, 0.0, -0.0, -0.0, 90.0]], 'warnings': [], 'nsites': 10}",0.0,8.0,25.0,7.3,0.35,21.6
340,mp-568280,Ba(NiAs)2,"{'Ba': 1.0, 'Ni': 2.0, 'As': 2.0}",0.19336637381485797,6.6074609205595705,"{'G_Reuss': 24.0, 'G_VRH': 27.0, 'G_Voigt': 29.0, 'G_Voigt_Reuss_Hill': 27.0, 'K_Reuss': 63.0, 'K_VRH': 64.0, 'K_Voigt': 65.0, 'K_Voigt_Reuss_Hill': 64.0, 'elastic_anisotropy': 1.23, 'elastic_tensor': [[132.0, 21.0, 51.0, 0.0, 0.0, 0.0], [21.0, 132.0, 51.0, 0.0, 0.0, 0.0], [51.0, 51.0, 72.0, 0.0, 0.0, 0.0], [0.0, 0.0, 0.0, 30.0, 0.0, 0.0], [0.0, 0.0, 0.0, 0.0, 30.0, 0.0], [0.0, 0.0, 0.0, 0.0, 0.0, 17.0]], 'homogeneous_poisson': 0.32, 'poisson_ratio': 0.32, 'universal_anisotropy': 1.23, 'elastic_tensor_original': [[131.73994888758557, 20.979871654852634, 51.35514138459962, 0.0, 0.0, 0.0], [20.98068938785039, 131.7471368687647, 51.35946386096182, 0.0, 0.0, 0.0], [50.88941515195641, 50.88941515195641, 72.3811241741262, 0.0, 0.0, 0.0], [-0.0005747689929175298, -0.0004778624960455098, -0.0007536553461490001, 29.579414815729034, 0.0, 0.0], [-0.005016791209821619, -0.004483838810303382, -0.004485952139934155, 0.0, 29.578941236558823, 0.0], [-2.014329761267473e-05, -8.169985511655597e-06, -8.869984270730322e-06, 0.0, 0.0, 17.166106355719602]], 'compliance_tensor': [[10.7, 1.7, -8.8, -0.0, -0.0, 0.0], [1.7, 10.7, -8.8, -0.0, -0.0, 0.0], [-8.8, -8.8, 26.2, 0.0, 0.0, -0.0], [-0.0, -0.0, 0.0, 33.8, 0.0, -0.0], [-0.0, -0.0, 0.0, 0.0, 33.8, -0.0], [0.0, 0.0, -0.0, -0.0, -0.0, 58.3]], 'warnings': [], 'nsites': 5}",0.0,27.0,64.0,1.23,0.32,71.28