,mp_id,Formula,Composition,IPF,Density,Elastic_Tensor,E_above_Hull,G_VRH,K_VRH,Elastic_Anisotropy,poisson_ratio,Y_Modulus
74,mp-977545,ZrTc2W,"{'Zr': 1.0, 'Tc': 2.0, 'W': 1.0}",0.1208149676405688,11.857923133807889,"{'G_Reuss': 104.0, 'G_VRH': 109.0, 'G_Voigt': 113.0, 'G_Voigt_Reuss_Hill': 109.0, 'K_Reuss': 198.0, 'K_VRH': 198.0, 'K_Voigt': 198.0, 'K_Voigt_Reuss_Hill': 198.0, 'elastic_anisotropy': 0.44, 'elastic_tensor': [[405.0, 94.0, 94.0, 0.0, 0.0, 0.0], [94.0, 405.0, 94.0, 0.0, 0.0, 0.0], [94.0, 94.0, 405.0, 0.0, 0.0, 0.0], [0.0, 0.0, 0.0, 86.0, 0.0, 0.0], [0.0, 0.0, 0.0, 0.0, 86.0, 0.0], [0.0, 0.0, 0.0, 0.0, 0.0, 86.0]], 'homogeneous_poisson': 0.27, 'poisson_ratio': 0.27, 'universal_anisotropy': 0.44, 'elastic_tensor_original': [[404.5598171809089, 94.14659762581984, 94.14659762581984, 0.0, 0.0, 0.0], [94.14659762581982, 404.5598171809089, 94.14659762581982, 0.0, 0.0, 0.0], [94.14659762581982, 94.14659762581982, 404.5598171809089, 0.0, 0.0, 0.0], [0.0, 0.0, 0.0, 85.61374087339809, 0.0, 0.0], [0.0, 0.0, 0.0, 0.0, 85.61374087339804, 0.0], [0.0, 0.0, 0.0, 0.0, 0.0, 85.61374087339804]], 'compliance_tensor': [[2.7, -0.5, -0.5, 0.0, -0.0, 0.0], [-0.5, 2.7, -0.5, -0.0, 0.0, -0.0], [-0.5, -0.5, 2.7, -0.0, -0.0, 0.0], [0.0, -0.0, -0.0, 11.7, -0.0, -0.0], [-0.0, 0.0, -0.0, -0.0, 11.7, -0.0], [0.0, -0.0, 0.0, -0.0, -0.0, 11.7]], 'warnings': [], 'nsites': 4}",0.0,109.0,198.0,0.44,0.27,276.86
75,mp-18848,Sr2MgWO6,"{'Sr': 2.0, 'Mg': 1.0, 'W': 1.0, 'O': 6.0}",0.5725591600889507,6.1512269436116895,"{'G_Reuss': 76.0, 'G_VRH': 76.0, 'G_Voigt': 77.0, 'G_Voigt_Reuss_Hill': 76.0, 'K_Reuss': 179.0, 'K_VRH': 179.0, 'K_Voigt': 179.0, 'K_Voigt_Reuss_Hill': 179.0, 'elastic_anisotropy': 0.07, 'elastic_tensor': [[267.0, 135.0, 135.0, 0.0, 0.0, 0.0], [135.0, 267.0, 135.0, 0.0, 0.0, 0.0], [135.0, 135.0, 267.0, 0.0, 0.0, 0.0], [0.0, 0.0, 0.0, 84.0, 0.0, 0.0], [0.0, 0.0, 0.0, 0.0, 84.0, 0.0], [0.0, 0.0, 0.0, 0.0, 0.0, 84.0]], 'homogeneous_poisson': 0.31, 'poisson_ratio': 0.31, 'universal_anisotropy': 0.07, 'elastic_tensor_original': [[266.76205622547667, 134.59295374399963, 134.59295374399963, 0.0, 0.0, 0.0], [134.59295374399963, 266.76205622547667, 134.59295374399963, 0.0, 0.0, 0.0], [134.59295374399963, 134.59295374399963, 266.76205622547667, 0.0, 0.0, 0.0], [0.0, 0.0, 0.0, 84.11127022770508, 0.0, 0.0], [0.0, 0.0, 0.0, 0.0, 84.11127022770508, 0.0], [0.0, 0.0, 0.0, 0.0, 0.0, 84.11127022770508]], 'compliance_tensor': [[5.6659941584955815, -1.9000706874100455, -1.9000706874100455, -1.1986829594411344e-16, 3.0629721088501415e-16, 5.114899841045796e-17], [-1.900070687410046, 5.665994158495582, -1.9000706874100457, 3.0629721088501415e-16, -1.1986829594411344e-16, -5.114899841045794e-17], [-1.900070687410046, -1.9000706874100455, 5.665994158495582, 3.0629721088501405e-16, 3.06297210885014e-16, 1.028380987265963e-32], [-1.1986829594411346e-16, 3.0629721088501415e-16, 3.0629721088501405e-16, 11.889013176151202, 1.523698678416297e-32, 3.750165084186681e-16], [3.062972108850142e-16, -1.1986829594411346e-16, 3.06297210885014e-16, 1.5236986784162952e-32, 11.889013176151202, 3.750165084186681e-16], [5.1148998410457964e-17, -5.1148998410457945e-17, 1.3102551583417654e-32, 3.750165084186681e-16, 3.750165084186681e-16, 11.889013176151202]], 'warnings': [], 'nsites': 10}",0.0,76.0,179.0,0.07,0.31,199.12
76,mp-504723,Ba2NiWO6,"{'Ba': 2.0, 'Ni': 1.0, 'W': 1.0, 'O': 6.0}",0.5903457057218283,7.36889259174993,"{'G_Reuss': 62.0, 'G_VRH': 65.0, 'G_Voigt': 68.0, 'G_Voigt_Reuss_Hill': 65.0, 'K_Reuss': 122.0, 'K_VRH': 122.0, 'K_Voigt': 122.0, 'K_Voigt_Reuss_Hill': 122.0, 'elastic_anisotropy': 0.48, 'elastic_tensor': [[182.0, 92.0, 92.0, 0.0, 0.0, 0.0], [92.0, 182.0, 92.0, 0.0, 0.0, 0.0], [92.0, 92.0, 182.0, 0.0, 0.0, 0.0], [0.0, 0.0, 0.0, 83.0, 0.0, 0.0], [0.0, 0.0, 0.0, 0.0, 83.0, 0.0], [0.0, 0.0, 0.0, 0.0, 0.0, 83.0]], 'homogeneous_poisson': 0.27, 'poisson_ratio': 0.27, 'universal_anisotropy': 0.48, 'elastic_tensor_original': [[181.78262850378334, 92.12788941593914, 92.12788941593914, 0.0, 0.0, -6.660097291549259e-05], [92.12788941590652, 181.7826285037187, 92.12788941590632, 0.0, 0.0, -6.691986667277777e-05], [92.12788941592818, 92.12788941591748, 181.7826285037455, -1.5944685458549152e-07, 0.0, -4.4908801738482154e-05], [0.0, 0.0, 0.0, 83.33920258334146, -2.032471549491805e-05, 0.0], [0.0, 0.0, 0.0, -2.029993953861633e-05, 83.33920258335137, 0.0], [-4.062465342611142e-05, -4.062465587083253e-05, 0.0, 0.0, 1.2387975240131485e-08, 83.33920258334642]], 'compliance_tensor': [[8.346584626026035, -2.807315437417764, -2.807315437419246, 8.015991437691799e-17, 3.181405999769497e-17, 8.137277791183806e-06], [-2.807315437417763, 8.346584626035492, -2.8073154374212526, -2.5253883349403995e-16, -1.54802749356199e-17, 3.11220983091702e-06], [-2.8073154374192457, -2.807315437421252, 8.346584626030998, -7.694055569047405e-17, 3.1814174909180403e-17, -2.736916545539852e-06], [8.01598382899365e-17, -2.5253875842828565e-16, -7.694048062470022e-17, 11.999154887529967, 5.849126376468579e-06, 3.308330985861399e-17], [3.1814149585130135e-17, -1.5480317606924604e-17, 3.1814151131986665e-17, 5.84912637646858e-06, 11.999154887521414, -1.7131147905176178e-16], [8.137277791183802e-06, 3.1122098309170236e-06, -2.736916545539852e-06, 3.308333018457603e-17, -1.7131147904690658e-16, 11.999154887531494]], 'warnings': [], 'nsites': 20}",0.0,65.0,122.0,0.48,0.27,165.1