,mp_id,Formula,Composition,IPF,Density,Elastic_Tensor,E_above_Hull,G_VRH,K_VRH,Elastic_Anisotropy,poisson_ratio,Y_Modulus
140,mp-9987,Nb2PC,"{'Nb': 2.0, 'P': 1.0, 'C': 1.0}",0.098217008,6.873148549,"{'G_Reuss': 136.0, 'G_VRH': 140.0, 'G_Voigt': 144.0, 'G_Voigt_Reuss_Hill': 140.0, 'K_Reuss': 223.0, 'K_VRH': 224.0, 'K_Voigt': 225.0, 'K_Voigt_Reuss_Hill': 224.0, 'elastic_anisotropy': 0.3, 'elastic_tensor': [[368.0, 117.0, 165.0, 0.0, 0.0, 0.0], [117.0, 368.0, 165.0, 0.0, 0.0, 0.0], [165.0, 165.0, 392.0, 0.0, 0.0, 0.0], [0.0, 0.0, 0.0, 184.0, 0.0, 0.0], [0.0, 0.0, 0.0, 0.0, 184.0, 0.0], [0.0, 0.0, 0.0, 0.0, 0.0, 125.0]], 'homogeneous_poisson': 0.24, 'poisson_ratio': 0.24, 'universal_anisotropy': 0.3, 'elastic_tensor_original': [[369.409837005792, 116.16383664987283, 165.92032856332216, 0.0, 0.0, 0.0], [115.24631155319119, 368.78999687801763, 165.95980724114216, 0.0, 0.0, 0.0], [163.34877639280026, 163.34884735010962, 392.3579557209944, 0.0, 0.0, 0.0], [-3.078914364302236e-05, 0.0003605151084754939, 0.00015821672820316758, 184.474085971209, 0.0, 0.0], [-0.00018716708778150677, -3.9600089097471914e-05, -0.00017196372024377575, 0.0, 184.46654843879205, 0.0], [-7.022348802257837e-05, -8.876019555680557e-05, 1.413336447052351e-05, 0.0, 0.0, 124.14832098150913]], 'compliance_tensor': [[3.4, -0.6, -1.2, -0.0, -0.0, 0.0], [-0.6, 3.4, -1.2, -0.0, 0.0, 0.0], [-1.2, -1.2, 3.6, 0.0, 0.0, -0.0], [-0.0, 0.0, 0.0, 5.4, 0.0, 0.0], [-0.0, 0.0, 0.0, 0.0, 5.4, -0.0], [0.0, 0.0, -0.0, 0.0, 0.0, 8.0]], 'warnings': [], 'nsites': 8}",0,140,224,0.3,0.24,347.2
141,mp-1018022,NbInS2,"{'Nb': 1.0, 'In': 1.0, 'S': 2.0}",0.135004947,5.300545939,"{'G_Reuss': 19.0, 'G_VRH': 26.0, 'G_Voigt': 34.0, 'G_Voigt_Reuss_Hill': 26.0, 'K_Reuss': 51.0, 'K_VRH': 52.0, 'K_Voigt': 53.0, 'K_Voigt_Reuss_Hill': 52.0, 'elastic_anisotropy': 3.88, 'elastic_tensor': [[131.0, 38.0, 9.0, 0.0, 0.0, 0.0], [38.0, 131.0, 9.0, 0.0, 0.0, 0.0], [9.0, 9.0, 104.0, 0.0, 0.0, 0.0], [0.0, 0.0, 0.0, 10.0, 0.0, 0.0], [0.0, 0.0, 0.0, 0.0, 10.0, 0.0], [0.0, 0.0, 0.0, 0.0, 0.0, 46.0]], 'homogeneous_poisson': 0.28, 'poisson_ratio': 0.28, 'universal_anisotropy': 3.88, 'elastic_tensor_original': [[130.42839556881506, 38.62941560103776, 9.668082484904785, 0.0, 0.0, 0.0], [38.922587523456144, 130.59958865344245, 10.550484323146653, 0.0, 0.0, 0.0], [8.280329072786557, 8.280338032299252, 104.17900786296534, 0.0, 0.0, 0.0], [2.8666728440010745e-07, 1.1606691679989509e-05, 7.326682456281692e-05, 9.777730388472555, 0.0, 0.0], [4.933357259366635e-06, -5.816694876861707e-06, 1.4096735033941804e-05, 0.0, 10.26950654569901, 0.0], [7.363350419204501e-05, 7.86568883683311e-05, 7.12835916228667e-05, 0.0, 0.0, 46.44269601330107]], 'compliance_tensor': [[8.4, -2.4, -0.5, -0.0, -0.0, 0.0], [-2.4, 8.4, -0.5, -0.0, -0.0, 0.0], [-0.5, -0.5, 9.7, 0.0, 0.0, -0.0], [-0.0, -0.0, 0.0, 99.8, 0.0, 0.0], [-0.0, -0.0, 0.0, 0.0, 99.8, -0.0], [0.0, 0.0, -0.0, 0.0, -0.0, 21.7]], 'warnings': [], 'nsites': 4}",0,26,52,3.88,0.28,66.56
142,mp-1029422,NbZn2N3,"{'Nb': 1.0, 'Zn': 2.0, 'N': 3.0}",0.142520321,5.634994044,"{'G_Reuss': 53.0, 'G_VRH': 53.0, 'G_Voigt': 53.0, 'G_Voigt_Reuss_Hill': 53.0, 'K_Reuss': 139.0, 'K_VRH': 139.0, 'K_Voigt': 139.0, 'K_Voigt_Reuss_Hill': 139.0, 'elastic_anisotropy': 0.03, 'elastic_tensor': [[216.0, 99.0, 112.0, 0.0, 0.0, 0.0], [99.0, 208.0, 94.0, 0.0, 0.0, 0.0], [112.0, 94.0, 219.0, 0.0, 0.0, 0.0], [0.0, 0.0, 0.0, 49.0, 0.0, 0.0], [0.0, 0.0, 0.0, 0.0, 51.0, 0.0], [0.0, 0.0, 0.0, 0.0, 0.0, 52.0]], 'homogeneous_poisson': 0.33, 'poisson_ratio': 0.33, 'universal_anisotropy': 0.03, 'elastic_tensor_original': [[216.00081878948393, 99.10283157337041, 112.965121818645, 0.0, 0.0, 0.0], [98.67937119338401, 208.1971486986813, 94.95729968062766, 0.0, 0.0, 0.0], [110.6697079393516, 92.61667542539584, 219.41507825859324, 0.0, 0.0, 0.0], [0.0002472833049880596, 0.00012416331910002304, 1.0266665488300157e-06, 48.893768025457, 0.0, 0.0], [-0.0015206554995641402, -0.0038954810960862498, -0.0013336016145954039, 0.0, 51.36750308129026, 0.0], [0.00046269581608471033, 0.001364710887584872, 0.0027436085805933666, 0.0, 0.0, 51.58951933630763]], 'compliance_tensor': [[7.0, -2.1, -2.6, 0.0, 0.0, 0.0], [-2.1, 6.6, -1.7, 0.0, 0.0, 0.0], [-2.6, -1.7, 6.6, 0.0, 0.0, 0.0], [0.0, 0.0, 0.0, 20.5, 0.0, 0.0], [0.0, 0.0, 0.0, 0.0, 19.5, 0.0], [0.0, 0.0, 0.0, 0.0, 0.0, 19.4]], 'warnings': [], 'nsites': 12}",0,53,139,0.03,0.33,140.98
143,mp-19746,NbPbS2,"{'Nb': 1.0, 'Pb': 1.0, 'S': 2.0}",0.155739256,6.755714455,"{'G_Reuss': 16.0, 'G_VRH': 26.0, 'G_Voigt': 37.0, 'G_Voigt_Reuss_Hill': 26.0, 'K_Reuss': 69.0, 'K_VRH': 69.0, 'K_Voigt': 69.0, 'K_Voigt_Reuss_Hill': 69.0, 'elastic_anisotropy': 6.69, 'elastic_tensor': [[142.0, 44.0, 22.0, 0.0, 0.0, 0.0], [44.0, 142.0, 22.0, 0.0, 0.0, 0.0], [22.0, 22.0, 163.0, 0.0, 0.0, 0.0], [0.0, 0.0, 0.0, 8.0, 0.0, 0.0], [0.0, 0.0, 0.0, 0.0, 8.0, 0.0], [0.0, 0.0, 0.0, 0.0, 0.0, 49.0]], 'homogeneous_poisson': 0.33, 'poisson_ratio': 0.33, 'universal_anisotropy': 6.69, 'elastic_tensor_original': [[142.81221061291157, 43.73673070531057, 21.92269868171236, 0.0, 0.0, 0.0], [44.71957793502068, 142.53673888339367, 21.207543944652308, 0.0, 0.0, 0.0], [22.727401120774537, 22.72740903901208, 162.8089727043049, 0.0, 0.0, 0.0], [4.727006645634868e-05, 2.6450037184930925e-05, -2.2033364310518162e-06, 7.571066364082238, 0.0, 0.0], [2.8913356668706325e-05, -1.1700239620158468e-06, -3.257343413926504e-05, 0.0, 7.6318489787727, 0.0], [-1.7386654083137115e-05, 5.266649911321804e-07, 1.9023315591883587e-05, 0.0, 0.0, 48.6944865646834]], 'compliance_tensor': [[7.9, -2.3, -0.8, 0.0, -0.0, -0.0], [-2.3, 7.9, -0.8, 0.0, -0.0, -0.0], [-0.8, -0.8, 6.3, -0.0, 0.0, 0.0], [0.0, 0.0, -0.0, 131.6, -0.0, -0.0], [-0.0, -0.0, 0.0, -0.0, 131.6, -0.0], [-0.0, -0.0, 0.0, -0.0, -0.0, 20.4]], 'warnings': [], 'nsites': 8}",0,26,69,6.69,0.33,69.16
144,mp-19835,Nb2InC,"{'Nb': 2.0, 'In': 1.0, 'C': 1.0}",0.127333601,8.050504584,"{'G_Reuss': 96.0, 'G_VRH': 97.0, 'G_Voigt': 97.0, 'G_Voigt_Reuss_Hill': 97.0, 'K_Reuss': 158.0, 'K_VRH': 158.0, 'K_Voigt': 158.0, 'K_Voigt_Reuss_Hill': 158.0, 'elastic_anisotropy': 0.07, 'elastic_tensor': [[290.0, 77.0, 106.0, 0.0, 0.0, 0.0], [77.0, 290.0, 106.0, 0.0, 0.0, 0.0], [106.0, 106.0, 263.0, 0.0, 0.0, 0.0], [0.0, 0.0, 0.0, 98.0, 0.0, 0.0], [0.0, 0.0, 0.0, 0.0, 98.0, 0.0], [0.0, 0.0, 0.0, 0.0, 0.0, 106.0]], 'homogeneous_poisson': 0.25, 'poisson_ratio': 0.25, 'universal_anisotropy': 0.07, 'elastic_tensor_original': [[292.4852094805662, 74.26718872583555, 106.36531997846572, 0.0, 0.0, 0.0], [75.66662368188567, 292.7298766116736, 107.85644995418933, 0.0, 0.0, 0.0], [105.35401431930185, 105.35396228524964, 262.6262220425404, 0.0, 0.0, 0.0], [6.277328696423025e-05, 1.794665340958163e-05, 5.176329509780522e-05, 97.44950088692778, 0.0, 0.0], [-4.194663196146261e-05, 0.00012360057631214037, -0.00014220652690315557, 0.0, 97.93823953026916, 0.0], [-0.050513055059426555, -0.02784753307067957, -0.020255225941755124, 0.0, 0.0, 103.98562952311454]], 'compliance_tensor': [[4.1, -0.6, -1.4, -0.0, -0.0, 0.0], [-0.6, 4.1, -1.4, -0.0, 0.0, 0.0], [-1.4, -1.4, 5.0, 0.0, 0.0, -0.0], [-0.0, 0.0, 0.0, 10.2, 0.0, -0.0], [-0.0, 0.0, 0.0, 0.0, 10.2, 0.0], [0.0, 0.0, -0.0, -0.0, 0.0, 9.4]], 'warnings': [], 'nsites': 8}",0,97,158,0.07,0.25,242.5
145,mp-20932,NbNiP,"{'Nb': 1.0, 'Ni': 1.0, 'P': 1.0}",0.119924439,7.72927969,"{'G_Reuss': 97.0, 'G_VRH': 98.0, 'G_Voigt': 100.0, 'G_Voigt_Reuss_Hill': 98.0, 'K_Reuss': 217.0, 'K_VRH': 218.0, 'K_Voigt': 218.0, 'K_Voigt_Reuss_Hill': 218.0, 'elastic_anisotropy': 0.14, 'elastic_tensor': [[349.0, 147.0, 169.0, 0.0, 0.0, 0.0], [147.0, 314.0, 169.0, 0.0, 0.0, 0.0], [169.0, 169.0, 329.0, 0.0, 0.0, 0.0], [0.0, 0.0, 0.0, 106.0, 0.0, 0.0], [0.0, 0.0, 0.0, 0.0, 123.0, 0.0], [0.0, 0.0, 0.0, 0.0, 0.0, 100.0]], 'homogeneous_poisson': 0.3, 'poisson_ratio': 0.3, 'universal_anisotropy': 0.14, 'elastic_tensor_original': [[329.2080720030103, 168.36391259935414, 169.78105345243515, 0.0, 0.0, 0.0], [170.39552125896344, 349.012722323482, 150.63895817685545, 0.0, 0.0, 0.0], [167.90241493747894, 143.85814433162554, 313.57705558973447, 0.0, 0.0, 0.0], [-0.004999629133991558, -0.004972499138691959, -0.004991759135356171, 99.54962723991612, 0.0, 0.0], [0.03450007714102709, 0.03469960040641923, 0.03453558059358394, 0.0, 105.96348451458422, 0.0], [-0.036264784347144065, -0.062110753874817216, -0.08462572999751558, 0.0, 0.0, 123.28051321413786]], 'compliance_tensor': [[4.1, -1.1, -1.5, 0.0, -0.0, 0.0], [-1.1, 4.7, -1.9, 0.0, 0.0, 0.0], [-1.5, -1.9, 4.8, 0.0, -0.0, 0.0], [0.0, 0.0, 0.0, 9.4, 0.0, 0.0], [-0.0, 0.0, -0.0, 0.0, 8.1, 0.0], [0.0, 0.0, 0.0, 0.0, 0.0, 10.0]], 'warnings': [], 'nsites': 12}",0,98,218,0.14,0.3,254.8
146,mp-27927,NbAlO4,"{'Nb': 1.0, 'Al': 1.0, 'O': 4.0}",0.506144688,4.164169894,"{'G_Reuss': 72.0, 'G_VRH': 74.0, 'G_Voigt': 77.0, 'G_Voigt_Reuss_Hill': 74.0, 'K_Reuss': 172.0, 'K_VRH': 172.0, 'K_Voigt': 173.0, 'K_Voigt_Reuss_Hill': 172.0, 'elastic_anisotropy': 0.39, 'elastic_tensor': [[268.0, 114.0, 121.0, 0.0, -6.0, 0.0], [114.0, 316.0, 98.0, 0.0, -22.0, 0.0], [121.0, 98.0, 304.0, 0.0, 19.0, 0.0], [0.0, 0.0, 0.0, 68.0, 0.0, -7.0], [-6.0, -22.0, 19.0, 0.0, 79.0, 0.0], [0.0, 0.0, 0.0, -7.0, 0.0, 53.0]], 'homogeneous_poisson': 0.31, 'poisson_ratio': 0.31, 'universal_anisotropy': 0.39, 'elastic_tensor_original': [[316.06262746068444, 125.00317804204876, 87.32924169238139, 13.016606613492295, 0.0, 0.0], [125.61647578110167, 274.9921428514903, 109.34031188819262, 2.294769004048064, 0.0, 0.0], [85.91759619974296, 110.25205027891501, 319.3370748474085, -1.787775582801594, 0.0, 0.0], [12.61395999398004, 2.2493507867295577, -3.0010301975522196, 67.94068159569791, 0.0, 0.0], [-0.008468413883447734, -0.0002130066805040654, 0.024862708281763696, -0.0044246969540983165, 62.79559409590947, 9.709835040757225], [0.0023048301888862707, -0.02307239522417593, 0.005428527111548279, 0.0016688601367671342, 9.517370309972938, 58.5512898317619]], 'compliance_tensor': [[5.0, -1.3, -1.6, 0.0, 0.5, 0.0], [-1.3, 4.0, -0.8, 0.0, 1.2, 0.0], [-1.6, -0.8, 4.3, 0.0, -1.4, 0.0], [0.0, 0.0, 0.0, 14.9, 0.0, 1.8], [0.5, 1.2, -1.4, 0.0, 13.4, 0.0], [0.0, 0.0, 0.0, 1.8, 0.0, 19.0]], 'warnings': [], 'nsites': 12}",0,74,172,0.39,0.31,193.88
147,mp-28150,BaNb2O6,"{'Ba': 1.0, 'Nb': 2.0, 'O': 6.0}",0.52296181,5.294185787,"{'G_Reuss': 25.0, 'G_VRH': 35.0, 'G_Voigt': 45.0, 'G_Voigt_Reuss_Hill': 35.0, 'K_Reuss': 75.0, 'K_VRH': 88.0, 'K_Voigt': 100.0, 'K_Voigt_Reuss_Hill': 88.0, 'elastic_anisotropy': 4.41, 'elastic_tensor': [[120.0, 85.0, 58.0, 0.0, 1.0, 0.0], [85.0, 169.0, 113.0, 0.0, 3.0, 0.0], [58.0, 113.0, 103.0, 0.0, -10.0, 0.0], [0.0, 0.0, 0.0, 76.0, 0.0, 4.0], [1.0, 3.0, -10.0, 0.0, 52.0, 0.0], [0.0, 0.0, 0.0, 4.0, 0.0, 49.0]], 'homogeneous_poisson': 0.33, 'poisson_ratio': 0.33, 'universal_anisotropy': 4.41, 'elastic_tensor_original': [[168.92222816475365, 112.40990023060398, 84.08856427830545, 3.139434820136637, 0.0, 0.0], [112.60930736664635, 103.1614726284316, 57.25324368622695, -10.503306674697239, 0.0, 0.0], [85.34778046699218, 57.89908369438659, 119.533957433764, 0.9566821860900452, 0.0, 0.0], [2.9603489561360683, -9.642369084391316, 0.9931560014210805, 52.46006734056609, 0.0, 0.0], [0.000837217290902772, 0.00011368008476072538, 0.0007450605555226349, 1.3320009931510685e-05, 49.38430656130751, 4.391176484093957], [0.0029733954803005686, 0.002747201983642679, 0.0006956938356655221, -0.0003192402305101612, 4.203858788768702, 75.59298934262158]], 'compliance_tensor': [[13.0, -6.2, -0.5, 0.0, 0.0, 0.0], [-6.2, 26.5, -26.1, 0.0, -6.4, 0.0], [-0.5, -26.1, 39.3, 0.0, 9.1, 0.0], [0.0, 0.0, 0.0, 13.3, 0.0, -1.2], [0.0, -6.4, 9.1, 0.0, 21.2, 0.0], [0.0, 0.0, 0.0, -1.2, 0.0, 20.4]], 'warnings': [], 'nsites': 18}",0,35,88,4.41,0.33,93.1
148,mp-28357,NbHg3F6,"{'Nb': 1.0, 'Hg': 3.0, 'F': 6.0}",0.190614458,7.237400469,"{'G_Reuss': 1.0, 'G_VRH': 3.0, 'G_Voigt': 5.0, 'G_Voigt_Reuss_Hill': 3.0, 'K_Reuss': 23.0, 'K_VRH': 23.0, 'K_Voigt': 23.0, 'K_Voigt_Reuss_Hill': 23.0, 'elastic_anisotropy': 22.8, 'elastic_tensor': [[27.0, 30.0, 6.0, 0.0, -1.0, 0.0], [30.0, 27.0, 6.0, 0.0, 1.0, 0.0], [6.0, 6.0, 70.0, 0.0, 0.0, 0.0], [0.0, 0.0, 0.0, -1.0, 0.0, 1.0], [-1.0, 1.0, 0.0, 0.0, -1.0, 0.0], [0.0, 0.0, 0.0, 1.0, 0.0, -2.0]], 'homogeneous_poisson': 0.44, 'poisson_ratio': 0.44, 'universal_anisotropy': 22.8, 'elastic_tensor_original': [[24.431876196465847, 32.03675146747216, 5.807454408711132, 0.0, 0.8130231911241512, 0.0], [32.239871093558385, 25.444301877644456, 6.180196455006548, 0.0, -0.9046809489979547, 0.0], [5.350515392578152, 5.350518492119626, 70.26037854815017, 0.0, 0.0, 0.0], [0.0002602463476591253, 0.0007365557638035922, 0.0006712325105433301, -0.598676119481807, 0.000514622702513692, -1.8108587402664782], [1.7144378028361, -1.5162626781635082, 0.21631774560632072, 0.0, -0.542610364384197, 0.0], [5.999915089131049e-07, -3.2866624345813366e-06, -2.620003425619133e-06, -1.0024263569192728, 1.1000089478182736e-06, 0.2749830888689865]], 'compliance_tensor': [[187.5, -169.7, -1.4, -0.0, -827.6, 0.0], [-169.7, 187.5, -1.4, 0.0, 827.6, 0.0], [-1.4, -1.4, 14.5, 0.0, 0.0, -0.0], [-0.0, 0.0, 0.0, 2081.8, 0.0, 1655.2], [-827.6, 827.6, 0.0, 0.0, 2081.8, -0.0], [0.0, 0.0, -0.0, 1655.2, -0.0, 714.5]], 'warnings': ['Elastic tensor has a negative eigenvalue', 'c11 and c12 are within 5% or c12 is greater than c11', 'One or more K, G below 2 GPa'], 'nsites': 10}",0,3,23,22.8,0.44,8.64
149,mp-3144,HoNbO4,"{'Ho': 1.0, 'Nb': 1.0, 'O': 4.0}",0.537110744,7.078433398,"{'G_Reuss': 56.0, 'G_VRH': 59.0, 'G_Voigt': 62.0, 'G_Voigt_Reuss_Hill': 59.0, 'K_Reuss': 145.0, 'K_VRH': 149.0, 'K_Voigt': 153.0, 'K_Voigt_Reuss_Hill': 149.0, 'elastic_anisotropy': 0.59, 'elastic_tensor': [[287.0, 93.0, 114.0, 0.0, 1.0, 0.0], [93.0, 227.0, 89.0, 0.0, 15.0, 0.0], [114.0, 89.0, 275.0, 0.0, 32.0, 0.0], [0.0, 0.0, 0.0, 49.0, 0.0, 1.0], [1.0, 15.0, 32.0, 0.0, 49.0, 0.0], [0.0, 0.0, 0.0, 1.0, 0.0, 48.0]], 'homogeneous_poisson': 0.33, 'poisson_ratio': 0.33, 'universal_anisotropy': 0.59, 'elastic_tensor_original': [[287.19181637839176, 91.07300673486289, 110.28595357610435, 0.0, 0.6679846917341264, 0.0], [94.54779084139764, 227.01117953595303, 89.2055172071586, 0.0, 14.821531049741903, -2.0400126145287536e-05], [116.72127862237727, 89.77336603042309, 275.41374847471724, 8.199888020092246e-06, 37.04316752839877, -8.199888020092246e-06], [-2.8575110432172006e-07, 0.0, 0.0, 48.7587025815491, -4.359879904848517e-06, 1.5978525205667677], [0.4644358626857896, 14.557215475037259, 26.13098015353144, 0.0, 49.28450200551863, -2.60004121836419e-06], [-8.617681075875428e-06, 0.0, 0.0, 1.1477015201267042, -1.0262407684672187e-07, 48.18790762981159]], 'compliance_tensor': [[4.535496219932551, -1.3120958869306723, -1.599436591294901, -5.227433956926051e-08, 1.3644394974150222, 1.6224352641519225e-06], [-1.3120958869306725, 5.442740277732982, -1.126188062795802, -5.068124805388851e-11, -0.8853118160032849, 9.73352147366501e-07], [-1.5994365912949002, -1.1261880627958023, 4.981773573465675, -8.507685909629426e-11, -2.8391225551882724, -2.0139905543183757e-07], [-5.227433956926051e-08, -5.068124805395421e-11, -8.507685909631396e-11, 20.52568311493398, 1.8353656515675985e-06, -0.5847465427200637], [1.3644394974150218, -0.8853118160032851, -2.8391225551882724, 1.835365651567598e-06, 22.35700799142858, -2.1070794116409104e-07], [1.6224352641519231e-06, 9.733521473665008e-07, -2.0139905543183797e-07, -0.5847465427200637, -2.1070794116409067e-07, 20.768691237776213]], 'warnings': ['Structure contains a rare earth element'], 'nsites': 12}",0,59,149,0.59,0.33,156.94
150,mp-3283,RbNbO3,"{'Rb': 1.0, 'Nb': 1.0, 'O': 3.0}",0.50694222,4.088579159,"{'G_Reuss': 16.0, 'G_VRH': 18.0, 'G_Voigt': 20.0, 'G_Voigt_Reuss_Hill': 18.0, 'K_Reuss': 35.0, 'K_VRH': 39.0, 'K_Voigt': 44.0, 'K_Voigt_Reuss_Hill': 39.0, 'elastic_anisotropy': 1.44, 'elastic_tensor': [[49.0, 24.0, 29.0, -4.0, 4.0, -9.0], [24.0, 71.0, 33.0, 13.0, 1.0, -6.0], [29.0, 33.0, 103.0, 5.0, 4.0, -1.0], [-4.0, 13.0, 5.0, 19.0, 1.0, 1.0], [4.0, 1.0, 4.0, 1.0, 16.0, -2.0], [-9.0, -6.0, -1.0, 1.0, -2.0, 18.0]], 'homogeneous_poisson': 0.3, 'poisson_ratio': 0.3, 'universal_anisotropy': 1.44, 'elastic_tensor_original': [[102.99271626998006, 31.234858210902267, 30.55166826469231, 2.1431241025180108, 2.3237994309778056, -6.658286574862551], [30.892865962048063, 56.21524572233508, 22.4693195090888, 9.529851938493389, -5.715281116119048, -10.02387092305631], [30.38011939707123, 22.042406731945505, 66.64767570141228, 8.584759838210092, 6.431470152255729, -1.3612988193845115], [2.3660550180080717, 9.222343799976311, 8.671048445150793, 16.45387080297013, -1.942856722845907, -5.4910666239430475], [1.515439527626144, -3.7626218175346673, 4.359473360660173, -3.0007999071055322, 16.23347263250061, 0.3415200027606637], [-5.830028810387525, -9.803726733457987, -1.1410935548140475, -5.406854231949332, 0.5302709014472223, 19.295633537767028]], 'compliance_tensor': [[32.3, -9.5, -6.3, 14.0, -5.4, 11.7], [-9.5, 22.7, -3.8, -17.1, 3.5, 3.8], [-6.3, -3.8, 12.8, -1.4, -2.0, -3.9], [14.0, -17.1, -1.4, 67.9, -6.4, -3.0], [-5.4, 3.5, -2.0, -6.4, 63.7, 6.3], [11.7, 3.8, -3.9, -3.0, 6.3, 63.6]], 'warnings': [], 'nsites': 20}",0,18,39,1.44,0.3,46.8
151,mp-3744,NaNbO2,"{'Na': 1.0, 'Nb': 1.0, 'O': 2.0}",0.564578351,5.414801144,"{'G_Reuss': 93.0, 'G_VRH': 97.0, 'G_Voigt': 101.0, 'G_Voigt_Reuss_Hill': 97.0, 'K_Reuss': 142.0, 'K_VRH': 146.0, 'K_Voigt': 149.0, 'K_Voigt_Reuss_Hill': 146.0, 'elastic_anisotropy': 0.5, 'elastic_tensor': [[349.0, 103.0, 50.0, 0.0, 0.0, 0.0], [103.0, 349.0, 50.0, 0.0, 0.0, 0.0], [50.0, 50.0, 242.0, 0.0, 0.0, 0.0], [0.0, 0.0, 0.0, 69.0, 0.0, 0.0], [0.0, 0.0, 0.0, 0.0, 69.0, 0.0], [0.0, 0.0, 0.0, 0.0, 0.0, 123.0]], 'homogeneous_poisson': 0.23, 'poisson_ratio': 0.23, 'universal_anisotropy': 0.5, 'elastic_tensor_original': [[350.13895155863787, 102.1958019416513, 48.500856036491136, 0.0, 0.0, 0.0], [102.20948873039988, 349.58854655878787, 48.40216844492813, 0.0, 0.0, 0.0], [50.61798993241254, 50.617989332418574, 242.39641841478817, 0.0, 0.0, 0.0], [-0.00025082736134609596, -0.00017664382255725658, -0.0003527476436174758, 69.47792219613441, 0.0, 0.0], [-0.00012075943749263907, -5.221013864032971e-05, 0.0001375395490805506, 0.0, 69.30441563370401, 0.0], [6.264669556336023e-05, 0.00018610044845732563, 0.00010094677185091062, 0.0, 0.0, 121.3368333275101]], 'compliance_tensor': [[3.2, -0.9, -0.5, -0.0, 0.0, 0.0], [-0.9, 3.2, -0.5, 0.0, -0.0, 0.0], [-0.5, -0.5, 4.3, 0.0, 0.0, -0.0], [0.0, 0.0, 0.0, 14.4, 0.0, -0.0], [0.0, 0.0, -0.0, 0.0, 14.4, -0.0], [0.0, 0.0, -0.0, 0.0, -0.0, 8.2]], 'warnings': [], 'nsites': 8}",0,97,146,0.5,0.23,238.62