,mp_id,Formula,Composition,IPF,Density,Elastic_Tensor,E_above_Hull,G_VRH,K_VRH,Elastic_Anisotropy,poisson_ratio,Y_Modulus
77,mp-28938,Nb3TeCl7,"{'Nb': 3.0, 'Te': 1.0, 'Cl': 7.0}",0.102611476,3.729077403,"{'G_Reuss': 1.0, 'G_VRH': 8.0, 'G_Voigt': 15.0, 'G_Voigt_Reuss_Hill': 8.0, 'K_Reuss': 3.0, 'K_VRH': 13.0, 'K_Voigt': 22.0, 'K_Voigt_Reuss_Hill': 13.0, 'elastic_anisotropy': 81.21, 'elastic_tensor': [[76.0, 21.0, 1.0, 0.0, 0.0, 0.0], [21.0, 76.0, 1.0, -0.0, 0.0, 0.0], [1.0, 1.0, 4.0, 0.0, 0.0, 0.0], [0.0, -0.0, 0.0, 0.0, 0.0, 0.0], [0.0, 0.0, 0.0, 0.0, 0.0, 0.0], [0.0, 0.0, 0.0, 0.0, 0.0, 28.0]], 'homogeneous_poisson': 0.25, 'poisson_ratio': 0.25, 'universal_anisotropy': 81.21, 'elastic_tensor_original': [[76.5386279701042, 20.60024228570091, 1.5700524510248408, -0.43510127630748374, 0.0, 0.0], [20.271267320566192, 76.15375243453545, 1.1815555377469613, 0.828479706148576, 0.0, 0.0], [0.9516976613236655, 0.9516973816255584, 3.532153761303624, 0.0, 0.0, 0.0], [0.05732936931897461, 0.056004619719839784, 0.04311490695356091, 0.3484225845683906, 0.0, 0.0], [0.0034856789742623824, 0.022158856812604148, 0.03434852655886026, -0.022147886815832376, 0.4433601461982298, -0.02302977988964935], [0.011360959886665202, -0.0028423824710167565, -0.015209538719090082, -0.026213525380719874, -0.0651222102433379, 27.56981432591801]], 'compliance_tensor': [[14.2, -3.8, -3.4, -8.2, -0.0, -0.0], [-3.8, 14.2, -3.4, 8.2, 0.0, -0.0], [-3.4, -3.4, 285.4, -0.0, 0.0, 0.0], [-8.2, 8.2, -0.0, 2533.4, -0.0, 0.0], [-0.0, 0.0, 0.0, -0.0, 2533.4, -16.4], [-0.0, -0.0, 0.0, 0.0, -16.4, 36.1]], 'warnings': ['One or more K, G below 2 GPa'], 'nsites': 22}",0,8,13,81.21,0.25,20
78,mp-29057,Nb3SBr7,"{'Nb': 3.0, 'S': 1.0, 'Br': 7.0}",0.096049828,4.63585335,"{'G_Reuss': 2.0, 'G_VRH': 9.0, 'G_Voigt': 16.0, 'G_Voigt_Reuss_Hill': 9.0, 'K_Reuss': 3.0, 'K_VRH': 13.0, 'K_Voigt': 22.0, 'K_Voigt_Reuss_Hill': 13.0, 'elastic_anisotropy': 38.92, 'elastic_tensor': [[78.0, 20.0, -1.0, 0.0, 0.0, 0.0], [20.0, 78.0, -1.0, -0.0, 0.0, 0.0], [-1.0, -1.0, 3.0, 0.0, 0.0, 0.0], [0.0, -0.0, 0.0, 1.0, 0.0, 0.0], [0.0, 0.0, 0.0, 0.0, 1.0, 0.0], [0.0, 0.0, 0.0, 0.0, 0.0, 29.0]], 'homogeneous_poisson': 0.21, 'poisson_ratio': 0.21, 'universal_anisotropy': 38.92, 'elastic_tensor_original': [[79.04067149386752, 19.25923480446291, -0.9575937097381938, 1.0575353362105175, 0.0, 0.0], [20.0756435506576, 79.02480245245093, -0.3240288443590474, 0.4997403277480425, 0.0, 0.0], [-0.534481900915917, -0.5344821424146877, 3.267112331114123, 0.0, 0.0, 0.0], [-0.23107558672508877, -0.009600445745833307, -0.11891893276470314, 1.1457050552358623, 0.0, 0.0], [-0.005449592492106227, 0.01832560079863797, 0.006228070467110343, 0.01550981939967173, 0.9332797585022099, -0.23507818841385947], [-0.05008448709613695, -0.009731665216064023, 0.04766773711359991, -0.03393935694829553, -0.21070548219099997, 28.414711903511428]], 'compliance_tensor': [[13.7, -3.5, 1.8, -1.1, 0.0, 0.0], [-3.5, 13.7, 1.8, 1.1, -0.0, 0.0], [1.8, 1.8, 306.7, 0.0, -0.0, 0.0], [-1.1, 1.1, 0.0, 962.2, 0.0, -0.0], [0.0, -0.0, -0.0, 0.0, 962.2, -2.3], [0.0, 0.0, 0.0, -0.0, -2.3, 34.4]], 'warnings': [], 'nsites': 11}",0,9,13,38.92,0.21,21.78
79,mp-3020,BaNbO3,"{'Ba': 1.0, 'Nb': 1.0, 'O': 3.0}",0.576061251,6.443755471,"{'G_Reuss': 88.0, 'G_VRH': 90.0, 'G_Voigt': 91.0, 'G_Voigt_Reuss_Hill': 90.0, 'K_Reuss': 167.0, 'K_VRH': 167.0, 'K_Voigt': 167.0, 'K_Voigt_Reuss_Hill': 167.0, 'elastic_anisotropy': 0.13, 'elastic_tensor': [[313.0, 95.0, 95.0, 0.0, 0.0, 0.0], [95.0, 313.0, 95.0, 0.0, 0.0, 0.0], [95.0, 95.0, 313.0, 0.0, 0.0, 0.0], [0.0, 0.0, 0.0, 78.0, 0.0, 0.0], [0.0, 0.0, 0.0, 0.0, 78.0, 0.0], [0.0, 0.0, 0.0, 0.0, 0.0, 78.0]], 'homogeneous_poisson': 0.27, 'poisson_ratio': 0.27, 'universal_anisotropy': 0.13, 'elastic_tensor_original': [[312.9921506370078, 94.67659570850539, 94.67659570850539, 0.0, 0.0, 0.0], [94.63666454131493, 312.9523653014472, 94.63666454131493, 0.0, 0.0, 0.0], [94.72272106700376, 94.72272106700376, 313.03772256382314, 0.0, 0.0, 0.0], [-0.0146535374241696, -0.01374089453019084, -0.014687818740102802, 78.4603139805789, 0.0, 0.0], [0.002197366149005979, 0.0022947156109606685, 0.0026816088908001748, 0.0, 78.46054433072263, 0.0], [0.07003778311715061, 0.07099768878572815, 0.07152711121342455, 0.0, 0.0, 78.46191895236585]], 'compliance_tensor': [[3.7, -0.9, -0.9, -0.0, 0.0, -0.0], [-0.9, 3.7, -0.9, 0.0, 0.0, -0.0], [-0.9, -0.9, 3.7, 0.0, 0.0, -0.0], [-0.0, 0.0, 0.0, 12.7, 0.0, 0.0], [0.0, 0.0, 0.0, 0.0, 12.7, 0.0], [-0.0, -0.0, -0.0, 0.0, 0.0, 12.7]], 'warnings': [], 'nsites': 5}",0,90,167,0.13,0.27,228.6
80,mp-33581,Ba9Nb10O30,"{'Ba': 9.0, 'Nb': 10.0, 'O': 30.0}",0.564409951,6.210149077,"{'G_Reuss': 92.0, 'G_VRH': 93.0, 'G_Voigt': 94.0, 'G_Voigt_Reuss_Hill': 93.0, 'K_Reuss': 170.0, 'K_VRH': 170.0, 'K_Voigt': 170.0, 'K_Voigt_Reuss_Hill': 170.0, 'elastic_anisotropy': 0.14, 'elastic_tensor': [[301.0, 94.0, 114.0, 0.0, 17.0, 0.0], [94.0, 321.0, 95.0, -0.0, -1.0, 0.0], [114.0, 95.0, 300.0, -0.0, -16.0, -0.0], [0.0, -0.0, -0.0, 82.0, 0.0, 0.0], [17.0, -1.0, -16.0, 0.0, 102.0, -0.0], [0.0, 0.0, -0.0, 0.0, -0.0, 82.0]], 'homogeneous_poisson': 0.27, 'poisson_ratio': 0.27, 'universal_anisotropy': 0.14, 'elastic_tensor_original': [[300.09511602709256, 114.41120981955734, 94.72254265447212, 0.19096444425279768, 0.23869077664380312, -15.847371110511665], [114.4766001793604, 301.2140033665488, 94.10543543108379, -0.07657567871922351, -0.22305049003880395, 16.420239138469107], [94.95542752263788, 94.18171180529714, 320.7545901111103, -0.15065200368588838, 0.11507245013004612, -0.615576454617358], [0.41582887671711316, -0.03772535225725602, -0.24657368401335536, 81.65868918593081, 0.1759553673682394, 0.16168832450241624], [0.13242057100542132, 0.007291794914497643, 0.1783629608118432, -0.1933630864394269, 81.50548560562493, -0.12400566833914942], [-15.539970674684023, 17.08199980845141, -0.4840317111260678, 0.11034279754430029, -0.10594413678664291, 102.15478315573311]], 'compliance_tensor': [[4.1, -0.8, -1.4, -0.0, -0.9, -0.0], [-0.8, 3.6, -0.8, 0.0, 0.0, -0.0], [-1.4, -0.8, 4.2, 0.0, 0.9, 0.0], [-0.0, 0.0, 0.0, 12.3, -0.0, 0.0], [-0.9, 0.0, 0.9, -0.0, 10.1, 0.0], [-0.0, -0.0, 0.0, 0.0, 0.0, 12.2]], 'warnings': [], 'nsites': 49}",0,93,170,0.14,0.27,236.22
81,mp-3731,LiNbO3,"{'Li': 1.0, 'Nb': 1.0, 'O': 3.0}",0.548242367,4.412866666,"{'G_Reuss': 56.0, 'G_VRH': 57.0, 'G_Voigt': 59.0, 'G_Voigt_Reuss_Hill': 57.0, 'K_Reuss': 102.0, 'K_VRH': 102.0, 'K_Voigt': 103.0, 'K_Voigt_Reuss_Hill': 102.0, 'elastic_anisotropy': 0.28, 'elastic_tensor': [[182.0, 57.0, 60.0, 11.0, 0.0, 0.0], [57.0, 182.0, 60.0, -11.0, 0.0, 0.0], [60.0, 60.0, 208.0, 0.0, 0.0, 0.0], [11.0, -11.0, 0.0, 49.0, 0.0, 0.0], [0.0, 0.0, 0.0, 0.0, 49.0, 11.0], [0.0, 0.0, 0.0, 0.0, 11.0, 62.0]], 'homogeneous_poisson': 0.26, 'poisson_ratio': 0.26, 'universal_anisotropy': 0.28, 'elastic_tensor_original': [[183.15354873222734, 55.51475047534213, 59.83921544225797, -12.114894910808847, 0.0, 0.0], [57.31460138406123, 180.91455204136952, 60.319687833220726, 13.157336459928896, 0.0, 0.0], [59.346047318119616, 59.346036778660206, 207.79621865983466, 0.0, 0.0, 0.0], [-9.949406733659808, 9.55308218697803, 0.2742598567229313, 49.46338106157369, 0.0, 0.0], [0.01013505881691951, 0.007913055132523205, 0.006911044443351257, -0.0022771256537702446, 49.360928037940035, -9.79623333916498], [-0.010437496735682927, -0.016528583189930706, 0.004568756062588169, 0.007371807532863019, -12.203813869354668, 62.12271656736979]], 'compliance_tensor': [[6.6, -1.7, -1.4, -1.9, -0.0, -0.0], [-1.7, 6.6, -1.4, 1.9, 0.0, -0.0], [-1.4, -1.4, 5.6, -0.0, 0.0, 0.0], [-1.9, 1.9, -0.0, 21.1, -0.0, 0.0], [0.0, 0.0, 0.0, -0.0, 21.1, -3.7], [-0.0, -0.0, 0.0, 0.0, -3.7, 16.7]], 'warnings': [], 'nsites': 10}",0,57,102,0.28,0.26,143.64
82,mp-3924,LiNbO2,"{'Li': 1.0, 'Nb': 1.0, 'O': 2.0}",0.558456335,5.52702232,"{'G_Reuss': 90.0, 'G_VRH': 100.0, 'G_Voigt': 111.0, 'G_Voigt_Reuss_Hill': 100.0, 'K_Reuss': 147.0, 'K_VRH': 154.0, 'K_Voigt': 161.0, 'K_Voigt_Reuss_Hill': 154.0, 'elastic_anisotropy': 1.22, 'elastic_tensor': [[408.0, 112.0, 43.0, 0.0, 0.0, 0.0], [112.0, 408.0, 43.0, 0.0, 0.0, 0.0], [43.0, 43.0, 243.0, 0.0, 0.0, 0.0], [0.0, 0.0, 0.0, 59.0, 0.0, 0.0], [0.0, 0.0, 0.0, 0.0, 59.0, 0.0], [0.0, 0.0, 0.0, 0.0, 0.0, 148.0]], 'homogeneous_poisson': 0.23, 'poisson_ratio': 0.23, 'universal_anisotropy': 1.22, 'elastic_tensor_original': [[410.23867188301, 109.69481739405329, 43.373638300798575, 0.0, 0.0, 0.0], [109.84086514991291, 410.17089305919075, 43.280685816772696, 0.0, 0.0, 0.0], [41.85167456743439, 41.851668667528756, 243.13128790431907, 0.0, 0.0, 0.0], [-8.30097519646328e-05, -1.400999069849768e-05, -7.783605115808743e-06, 58.877099888866745, 0.0, 0.0], [6.923331024630364e-05, -0.00023000992330087284, -0.00020146993281958505, 0.0, 58.97099228886727, 0.0], [-0.00016139662166226955, 0.0011082396910850798, 0.002380879336329981, 0.0, 0.0, 145.75018559870446]], 'compliance_tensor': [[2.7, -0.7, -0.3, 0.0, 0.0, 0.0], [-0.7, 2.7, -0.3, -0.0, 0.0, 0.0], [-0.3, -0.3, 4.2, -0.0, 0.0, -0.0], [0.0, 0.0, -0.0, 17.0, 0.0, -0.0], [0.0, -0.0, 0.0, 0.0, 17.0, -0.0], [0.0, 0.0, -0.0, -0.0, 0.0, 6.8]], 'warnings': [], 'nsites': 8}",0,100,154,1.22,0.23,246
83,mp-505297,NbSbRu,"{'Nb': 1.0, 'Sb': 1.0, 'Ru': 1.0}",0.099162793,8.790458586,"{'G_Reuss': 66.0, 'G_VRH': 66.0, 'G_Voigt': 66.0, 'G_Voigt_Reuss_Hill': 66.0, 'K_Reuss': 168.0, 'K_VRH': 168.0, 'K_Voigt': 168.0, 'K_Voigt_Reuss_Hill': 168.0, 'elastic_anisotropy': 0.0, 'elastic_tensor': [[256.0, 124.0, 124.0, 0.0, 0.0, 0.0], [124.0, 256.0, 124.0, 0.0, 0.0, 0.0], [124.0, 124.0, 256.0, 0.0, 0.0, 0.0], [0.0, 0.0, 0.0, 67.0, 0.0, 0.0], [0.0, 0.0, 0.0, 0.0, 67.0, 0.0], [0.0, 0.0, 0.0, 0.0, 0.0, 67.0]], 'homogeneous_poisson': 0.33, 'poisson_ratio': 0.33, 'universal_anisotropy': 0.0, 'elastic_tensor_original': [[255.72380724774393, 124.2966754367958, 124.2966754367958, 0.0, 0.0, 0.0], [124.2967632424913, 255.72391720508338, 124.2967632424913, 0.0, 0.0, 0.0], [124.29904354075033, 124.29904354075033, 255.7263296000298, 0.0, 0.0, 0.0], [0.00012157667728685403, 1.8723262942371317e-05, 0.00017877997845634655, 66.70314016621464, 0.0, 0.0], [-3.328663034137139e-05, 2.1600138846893465e-05, 1.0206758516232116e-05, 0.0, 66.7030559428405, 0.0], [0.00044813334164541316, 0.00035232646636682355, 0.0003888366849444545, 0.0, 0.0, 66.70320586610761]], 'compliance_tensor': [[5.7, -1.9, -1.9, -0.0, -0.0, 0.0], [-1.9, 5.7, -1.9, 0.0, -0.0, -0.0], [-1.9, -1.9, 5.7, -0.0, 0.0, -0.0], [-0.0, 0.0, -0.0, 15.0, -0.0, -0.0], [-0.0, -0.0, 0.0, -0.0, 15.0, -0.0], [0.0, -0.0, -0.0, -0.0, -0.0, 15.0]], 'warnings': [], 'nsites': 3}",0,66,168,0,0.33,175.56
84,mp-505517,BaNb4O6,"{'Ba': 1.0, 'Nb': 4.0, 'O': 6.0}",0.490950803,6.721871925,"{'G_Reuss': 106.0, 'G_VRH': 109.0, 'G_Voigt': 112.0, 'G_Voigt_Reuss_Hill': 109.0, 'K_Reuss': 182.0, 'K_VRH': 185.0, 'K_Voigt': 188.0, 'K_Voigt_Reuss_Hill': 185.0, 'elastic_anisotropy': 0.32, 'elastic_tensor': [[419.0, 90.0, 98.0, 0.0, 0.0, 0.0], [90.0, 419.0, 98.0, 0.0, 0.0, 0.0], [98.0, 98.0, 282.0, 0.0, 0.0, 0.0], [0.0, 0.0, 0.0, 89.0, 0.0, 0.0], [0.0, 0.0, 0.0, 0.0, 89.0, 0.0], [0.0, 0.0, 0.0, 0.0, 0.0, 106.0]], 'homogeneous_poisson': 0.25, 'poisson_ratio': 0.25, 'universal_anisotropy': 0.32, 'elastic_tensor_original': [[418.63797747586364, 90.14361024469463, 98.5070690953924, 0.0, 0.0, 0.0], [90.14247501076547, 418.63844004048883, 98.49725148903515, 0.0, 0.0, 0.0], [96.49816782073741, 96.49816782073741, 282.41788135471774, 0.0, 0.0, 0.0], [0.001030123780693733, 0.003556231544394323, 0.0028554345733872158, 88.84816746149282, 0.0, 0.0], [-0.003576954886726741, -0.0011210838201954532, -0.0027215778485889697, 0.0, 88.84778063132482, 0.0], [-6.981335924168632e-05, -5.917668862768199e-05, 0.00015855339217362498, 0.0, 0.0, 106.41012987620863]], 'compliance_tensor': [[2.7, -0.4, -0.8, 0.0, -0.0, 0.0], [-0.4, 2.7, -0.8, 0.0, -0.0, 0.0], [-0.8, -0.8, 4.1, 0.0, 0.0, -0.0], [0.0, 0.0, 0.0, 11.3, 0.0, 0.0], [-0.0, -0.0, 0.0, 0.0, 11.3, -0.0], [0.0, 0.0, -0.0, 0.0, -0.0, 9.4]], 'warnings': [], 'nsites': 11}",0,109,185,0.32,0.25,272.5
85,mp-5246,KNbO3,"{'K': 1.0, 'Nb': 1.0, 'O': 3.0}",0.615007038,4.360499831,"{'G_Reuss': 57.0, 'G_VRH': 63.0, 'G_Voigt': 70.0, 'G_Voigt_Reuss_Hill': 63.0, 'K_Reuss': 96.0, 'K_VRH': 103.0, 'K_Voigt': 111.0, 'K_Voigt_Reuss_Hill': 103.0, 'elastic_anisotropy': 1.28, 'elastic_tensor': [[197.0, 28.0, 77.0, 0.0, 0.0, 0.0], [28.0, 151.0, 69.0, 0.0, 0.0, 0.0], [77.0, 69.0, 303.0, 0.0, 0.0, 0.0], [0.0, 0.0, 0.0, 80.0, 0.0, 0.0], [0.0, 0.0, 0.0, 0.0, 81.0, 0.0], [0.0, 0.0, 0.0, 0.0, 0.0, 28.0]], 'homogeneous_poisson': 0.25, 'poisson_ratio': 0.25, 'universal_anisotropy': 1.28, 'elastic_tensor_original': [[196.74776431678026, 28.016273160571984, 77.07662895694483, 0.0, 0.0, 0.0], [27.03279189044061, 150.68583031490314, 62.54101601454403, 0.0, 0.0, 0.0], [75.97449810828824, 76.1092687269364, 303.37347888488114, 0.0, 0.0, 0.0], [0.0, 0.0, 0.0, 80.33320654047958, 0.0, 0.0], [0.0, 0.0, 0.0, 0.0, 81.18553530546053, 0.0], [0.0, 0.0, 0.0, 0.0, 0.0, 27.94231717924529]], 'compliance_tensor': [[5.7, -0.4, -1.3, 0.0, 0.0, -0.0], [-0.4, 7.4, -1.6, 0.0, 0.0, -0.0], [-1.3, -1.6, 4.0, 0.0, 0.0, 0.0], [0.0, 0.0, 0.0, 12.4, -0.0, 0.0], [0.0, 0.0, 0.0, -0.0, 12.3, 0.0], [-0.0, -0.0, 0.0, 0.0, 0.0, 35.8]], 'warnings': [], 'nsites': 5}",0.133752,63,103,1.28,0.25,157.5
86,mp-553961,ScNbO4,"{'Sc': 1.0, 'Nb': 1.0, 'O': 4.0}",0.534721541,4.62789057,"{'G_Reuss': 57.0, 'G_VRH': 61.0, 'G_Voigt': 66.0, 'G_Voigt_Reuss_Hill': 61.0, 'K_Reuss': 165.0, 'K_VRH': 167.0, 'K_Voigt': 169.0, 'K_Voigt_Reuss_Hill': 167.0, 'elastic_anisotropy': 0.77, 'elastic_tensor': [[280.0, 96.0, 144.0, 0.0, -17.0, 0.0], [96.0, 224.0, 136.0, 0.0, 15.0, 0.0], [144.0, 136.0, 263.0, 0.0, -2.0, 0.0], [0.0, 0.0, 0.0, 52.0, 0.0, 21.0], [-17.0, 15.0, -2.0, 0.0, 88.0, 0.0], [0.0, 0.0, 0.0, 21.0, 0.0, 58.0]], 'homogeneous_poisson': 0.34, 'poisson_ratio': 0.34, 'universal_anisotropy': 0.77, 'elastic_tensor_original': [[223.9849662327155, 134.55690968282238, 95.7735791017026, 15.054646209369075, 0.0, 0.0], [137.48015205408743, 263.08347040941374, 144.91387275460602, -2.7435143319953363, 0.0, 0.0], [97.07333219060246, 142.67908228893396, 280.03475746825416, -17.60098092281015, 0.0, 0.0], [15.07544207997683, -1.4618517678911311, -16.46476834440898, 88.38759958803128, 0.0, 0.0], [-0.001079851888899591, 0.00021081638467450537, -0.0010909752073536613, -0.00018474308621684748, 58.24245105358799, 21.25637457699545], [0.00011098985681793558, 4.492994204034136e-05, -3.756661819552482e-06, -0.00023835302584423296, 20.10387138487554, 51.81357651423965]], 'compliance_tensor': [[5.1, -0.9, -2.4, 0.0, 1.1, 0.0], [-0.9, 6.8, -3.0, 0.0, -1.4, 0.0], [-2.4, -3.0, 6.7, 0.0, 0.2, 0.0], [0.0, 0.0, 0.0, 22.5, 0.0, -8.0], [1.1, -1.4, 0.2, 0.0, 11.8, 0.0], [0.0, 0.0, 0.0, -8.0, 0.0, 20.0]], 'warnings': [], 'nsites': 12}",0,61,167,0.77,0.34,163.48
87,mp-570558,Rb2NbCl6,"{'Rb': 2.0, 'Nb': 1.0, 'Cl': 6.0}",0.191771604,2.887440469,"{'G_Reuss': 4.0, 'G_VRH': 4.0, 'G_Voigt': 4.0, 'G_Voigt_Reuss_Hill': 4.0, 'K_Reuss': 10.0, 'K_VRH': 10.0, 'K_Voigt': 10.0, 'K_Voigt_Reuss_Hill': 10.0, 'elastic_anisotropy': 0.51, 'elastic_tensor': [[14.0, 7.0, 9.0, 0.0, 0.0, 0.0], [7.0, 13.0, 7.0, 0.0, 0.0, 0.0], [9.0, 7.0, 14.0, 0.0, 0.0, 0.0], [0.0, 0.0, 0.0, 5.0, 0.0, 0.0], [0.0, 0.0, 0.0, 0.0, 5.0, 0.0], [0.0, 0.0, 0.0, 0.0, 0.0, 5.0]], 'homogeneous_poisson': 0.31, 'poisson_ratio': 0.31, 'universal_anisotropy': 0.51, 'elastic_tensor_original': [[16.144726056647293, 5.884012711467297, 7.76761685066578, 1.7835134440654973e-05, 6.770967146709505e-05, -0.0033682868329880365], [6.661606849320658, 15.77611792209621, 7.515362233339136, 0.0, 0.0, 0.0], [6.6145187648313115, 6.614924214758377, 13.405395752839794, 2.6245374074119916e-05, -0.0021982956904970058, 0.00010460054739853595], [0.09894613025003159, 0.03493516705848193, -0.11806897414902687, 5.314497901052785, 0.0, 0.0], [0.03493516705848215, 0.09894613025003172, -0.11806897414902669, 0.0, 5.311943309196041, 0.0], [0.01862124289191811, -0.022232785715518705, 0.02957076145254412, 0.0021345000021424166, -0.0005931971304440186, 2.392507478859546]], 'compliance_tensor': [[138.61624141830447, -36.289105664381246, -70.36952118350713, 4.132647643847804e-15, 4.164746488122473e-14, 7.864302712483358e-18], [-36.28910566438124, 113.18913491868946, -36.28910566438127, 6.728666775409445e-15, -1.0377391746352096e-14, -2.5084134379610615e-17], [-70.36952118350715, -36.289105664381275, 138.6162414183045, -9.815241213394943e-15, -3.4993358621386744e-14, 6.921970257181023e-18], [4.132647643847806e-15, 6.728666775409444e-15, -9.81524121339494e-15, 188.20976472076754, -2.680977606029452e-17, -1.573093457107729e-14], [3.3270531299189936e-15, -1.0377391746352099e-14, 3.3270531299189983e-15, -2.6809776060294204e-17, 206.4492216303357, -1.0983804170795133e-15], [7.864302712482269e-18, -2.5084134379609845e-17, 6.921970257179871e-18, -1.573093457107729e-14, -1.0983804170795182e-15, 188.20976472076754]], 'warnings': [], 'nsites': 9}",0,4,10,0.51,0.31,10.48
88,mp-571513,Rb2NbCl6,"{'Rb': 2.0, 'Nb': 1.0, 'Cl': 6.0}",0.186891749,2.813966129,"{'G_Reuss': 4.0, 'G_VRH': 4.0, 'G_Voigt': 4.0, 'G_Voigt_Reuss_Hill': 4.0, 'K_Reuss': 10.0, 'K_VRH': 10.0, 'K_Voigt': 10.0, 'K_Voigt_Reuss_Hill': 10.0, 'elastic_anisotropy': 0.51, 'elastic_tensor': [[14.0, 7.0, 9.0, 0.0, 0.0, 0.0], [7.0, 13.0, 7.0, 0.0, 0.0, 0.0], [9.0, 7.0, 14.0, 0.0, 0.0, 0.0], [0.0, 0.0, 0.0, 5.0, 0.0, 0.0], [0.0, 0.0, 0.0, 0.0, 5.0, 0.0], [0.0, 0.0, 0.0, 0.0, 0.0, 5.0]], 'homogeneous_poisson': 0.31, 'poisson_ratio': 0.31, 'universal_anisotropy': 0.51, 'elastic_tensor_original': [[16.144726056647293, 5.884012711467297, 7.76761685066578, 1.7835134440654973e-05, 6.770967146709505e-05, -0.0033682868329880365], [6.661606849320658, 15.77611792209621, 7.515362233339136, 0.0, 0.0, 0.0], [6.6145187648313115, 6.614924214758377, 13.405395752839794, 2.6245374074119916e-05, -0.0021982956904970058, 0.00010460054739853595], [0.09894613025003159, 0.03493516705848193, -0.11806897414902687, 5.314497901052785, 0.0, 0.0], [0.03493516705848215, 0.09894613025003172, -0.11806897414902669, 0.0, 5.311943309196041, 0.0], [0.01862124289191811, -0.022232785715518705, 0.02957076145254412, 0.0021345000021424166, -0.0005931971304440186, 2.392507478859546]], 'compliance_tensor': [[138.61624141830447, -36.289105664381246, -70.36952118350713, 4.132647643847804e-15, 4.164746488122473e-14, 7.864302712483358e-18], [-36.28910566438124, 113.18913491868946, -36.28910566438127, 6.728666775409445e-15, -1.0377391746352096e-14, -2.5084134379610615e-17], [-70.36952118350715, -36.289105664381275, 138.6162414183045, -9.815241213394943e-15, -3.4993358621386744e-14, 6.921970257181023e-18], [4.132647643847806e-15, 6.728666775409444e-15, -9.81524121339494e-15, 188.20976472076754, -2.680977606029452e-17, -1.573093457107729e-14], [3.3270531299189936e-15, -1.0377391746352099e-14, 3.3270531299189983e-15, -2.6809776060294204e-17, 206.4492216303357, -1.0983804170795133e-15], [7.864302712482269e-18, -2.5084134379609845e-17, 6.921970257179871e-18, -1.573093457107729e-14, -1.0983804170795182e-15, 188.20976472076754]], 'warnings': [], 'nsites': 9}",0.399284444,4,10,0.51,0.31,10.48