,mp_id,Formula,Composition,IPF,Density,Elastic_Tensor,E_above_Hull,G_VRH,K_VRH,Elastic_Anisotropy,poisson_ratio,Y_Modulus
102,mp-977534,ZrNbTc2,"{'Zr': 1.0, 'Nb': 1.0, 'Tc': 2.0}",0.123039323,9.255031964,"{'G_Reuss': 89.0, 'G_VRH': 92.0, 'G_Voigt': 96.0, 'G_Voigt_Reuss_Hill': 92.0, 'K_Reuss': 246.0, 'K_VRH': 246.0, 'K_Voigt': 246.0, 'K_Voigt_Reuss_Hill': 246.0, 'elastic_anisotropy': 0.39, 'elastic_tensor': [[418.0, 159.0, 159.0, 0.0, 0.0, 0.0], [159.0, 418.0, 159.0, 0.0, 0.0, 0.0], [159.0, 159.0, 418.0, 0.0, 0.0, 0.0], [0.0, 0.0, 0.0, 73.0, 0.0, 0.0], [0.0, 0.0, 0.0, 0.0, 73.0, 0.0], [0.0, 0.0, 0.0, 0.0, 0.0, 73.0]], 'homogeneous_poisson': 0.33, 'poisson_ratio': 0.33, 'universal_anisotropy': 0.39, 'elastic_tensor_original': [[417.67005396092486, 159.4999946048789, 159.4999946048789, 0.6562362111118009, -0.003259934482567863, 0.003259934482567863], [159.4999946048789, 417.67005396092486, 159.4999946048789, -0.0032599344825590534, -0.6562362111117961, -0.003250534671479233], [159.4999946048789, 159.4999946048789, 417.67005396092486, -0.0032505346714743694, -0.0032505346714743694, -0.6562362111118009], [0.0, 0.0, 0.0, 73.34556157103108, 0.0, 0.0], [0.0, 0.0, 0.0, 0.0, 73.34556157103108, 0.0], [0.0, 0.0, 0.0, 0.0, 0.0, 73.34556157103108]], 'compliance_tensor': [[3.0, -0.8, -0.8, 0.0, -0.0, 0.0], [-0.8, 3.0, -0.8, -0.0, 0.0, -0.0], [-0.8, -0.8, 3.0, -0.0, -0.0, -0.0], [0.0, -0.0, -0.0, 13.6, 0.0, -0.0], [-0.0, 0.0, -0.0, 0.0, 13.6, -0.0], [0.0, -0.0, -0.0, -0.0, -0.0, 13.6]], 'warnings': [], 'nsites': 4}",0,92,246,0.39,0.33,244.72
103,mp-977555,MgNbRh2,"{'Mg': 1.0, 'Nb': 1.0, 'Rh': 2.0}",0.133857667,8.509189719,"{'G_Reuss': -42.0, 'G_VRH': 0.0, 'G_Voigt': 43.0, 'G_Voigt_Reuss_Hill': 0.0, 'K_Reuss': 216.0, 'K_VRH': 216.0, 'K_Voigt': 216.0, 'K_Voigt_Reuss_Hill': 216.0, 'elastic_anisotropy': -10.04, 'elastic_tensor': [[199.0, 225.0, 225.0, 0.0, 0.0, 0.0], [225.0, 199.0, 225.0, 0.0, 0.0, 0.0], [225.0, 225.0, 199.0, 0.0, 0.0, 0.0], [0.0, 0.0, 0.0, 80.0, 0.0, 0.0], [0.0, 0.0, 0.0, 0.0, 80.0, 0.0], [0.0, 0.0, 0.0, 0.0, 0.0, 80.0]], 'homogeneous_poisson': 0.5, 'poisson_ratio': 0.5, 'universal_anisotropy': -10.04, 'elastic_tensor_original': [[198.91204994783863, 224.5533747314971, 224.5533747314971, 0.0, 0.0, 0.0], [224.5533747314971, 198.91204994783863, 224.5533747314971, 0.0, 0.0, 0.0], [224.5533747314971, 224.5533747314971, 198.91204994783863, 0.0, 0.0, 0.0], [0.0, 0.0, 0.0, 79.57550472379883, 0.0, 0.0], [0.0, 0.0, 0.0, 0.0, 79.57550472379883, 0.0], [0.0, 0.0, 0.0, 0.0, 0.0, 79.57550472379883]], 'compliance_tensor': [[-25.5, 13.5, 13.5, 0.0, -0.0, -0.0], [13.5, -25.5, 13.5, -0.0, 0.0, 0.0], [13.5, 13.5, -25.5, -0.0, -0.0, 0.0], [0.0, -0.0, -0.0, 12.6, 0.0, 0.0], [-0.0, 0.0, -0.0, 0.0, 12.6, 0.0], [-0.0, 0.0, -0.0, 0.0, 0.0, 12.6]], 'warnings': ['Elastic tensor has a negative eigenvalue', 'c11 and c12 are within 5% or c12 is greater than c11', 'c11 and c13 are within 5% or c13 is greater than c11', 'c11 and c23 are within 5% or c23 is greater than c11', 'One or more K, G below 2 GPa'], 'nsites': 4}",0,0,216,-10.04,0.5,0
104,mp-977563,LiNbIr2,"{'Li': 1.0, 'Nb': 1.0, 'Ir': 2.0}",0.154699169,13.65006744,"{'G_Reuss': 96.0, 'G_VRH': 98.0, 'G_Voigt': 101.0, 'G_Voigt_Reuss_Hill': 98.0, 'K_Reuss': 279.0, 'K_VRH': 279.0, 'K_Voigt': 279.0, 'K_Voigt_Reuss_Hill': 279.0, 'elastic_anisotropy': 0.26, 'elastic_tensor': [[378.0, 229.0, 229.0, 0.0, 0.0, 0.0], [229.0, 378.0, 229.0, 0.0, 0.0, 0.0], [229.0, 229.0, 378.0, 0.0, 0.0, 0.0], [0.0, 0.0, 0.0, 118.0, 0.0, 0.0], [0.0, 0.0, 0.0, 0.0, 118.0, 0.0], [0.0, 0.0, 0.0, 0.0, 0.0, 118.0]], 'homogeneous_poisson': 0.34, 'poisson_ratio': 0.34, 'universal_anisotropy': 0.26, 'elastic_tensor_original': [[378.40688163282454, 229.2582635662449, 229.25744756831364, 0.255997950973666, -0.34500092532625765, 0.3444737266628536], [229.2577646150923, 378.3860437072841, 229.2525704442371, -0.3584152143986586, -0.12861144771130711, -0.17191805068842322], [229.24854714848323, 229.2581925130717, 378.36392009384775, -0.0001591994155233208, -0.37268643173789123, 0.0001485994544394816], [0.004574766281254395, 0.012190758101980314, 0.010404024146784244, 118.54369477315593, -0.13972751296367755, 0.04885195348744169], [-0.012575972929612498, -0.004576815962467052, -0.010712049692030557, 0.040807959149135875, 118.36107389534125, 0.04897613243217563], [7.647238206494447e-05, 7.670621130260892e-05, -2.0443284741709558e-07, -0.00013420655832861714, 0.09021235310554665, 118.45236501020128]], 'compliance_tensor': [[4.9, -1.8, -1.8, -0.0, 0.0, -0.0], [-1.8, 4.9, -1.8, 0.0, -0.0, -0.0], [-1.8, -1.8, 4.9, 0.0, 0.0, 0.0], [-0.0, 0.0, 0.0, 8.4, -0.0, 0.0], [0.0, -0.0, 0.0, -0.0, 8.4, 0.0], [-0.0, -0.0, 0.0, 0.0, 0.0, 8.4]], 'warnings': [], 'nsites': 4}",0,98,279,0.26,0.34,262.64
105,mp-982725,Nb2RuW,"{'Nb': 2.0, 'Ru': 1.0, 'W': 1.0}",0.11598413,11.74882527,"{'G_Reuss': 111.0, 'G_VRH': 113.0, 'G_Voigt': 114.0, 'G_Voigt_Reuss_Hill': 113.0, 'K_Reuss': 200.0, 'K_VRH': 200.0, 'K_Voigt': 200.0, 'K_Voigt_Reuss_Hill': 200.0, 'elastic_anisotropy': 0.16, 'elastic_tensor': [[387.0, 107.0, 107.0, 0.0, 0.0, 0.0], [107.0, 387.0, 107.0, 0.0, 0.0, 0.0], [107.0, 107.0, 387.0, 0.0, 0.0, 0.0], [0.0, 0.0, 0.0, 97.0, 0.0, 0.0], [0.0, 0.0, 0.0, 0.0, 97.0, 0.0], [0.0, 0.0, 0.0, 0.0, 0.0, 97.0]], 'homogeneous_poisson': 0.26, 'poisson_ratio': 0.26, 'universal_anisotropy': 0.16, 'elastic_tensor_original': [[386.97183663177134, 107.19806132701828, 107.19806132701828, 0.0, 0.0, 0.0], [107.19806132701828, 386.97183663177134, 107.19806132701828, 0.0, 0.0, 0.0], [107.19806132701828, 107.19806132701828, 386.97183663177134, 0.0, 0.0, 0.0], [0.0, 0.0, 0.0, 97.21808306873078, 0.0018625940831275714, 0.0], [0.0, 0.0, 0.0, -0.0018625940831288545, 97.21808306873078, 0.0], [0.0, 0.0, 0.0, 0.0, -0.0018644940770915297, 97.21808416872723]], 'compliance_tensor': [[2.9, -0.6, -0.6, 0.0, -0.0, 0.0], [-0.6, 2.9, -0.6, -0.0, 0.0, -0.0], [-0.6, -0.6, 2.9, -0.0, -0.0, 0.0], [0.0, -0.0, -0.0, 10.3, -0.0, -0.0], [-0.0, 0.0, -0.0, -0.0, 10.3, -0.0], [0.0, -0.0, 0.0, -0.0, -0.0, 10.3]], 'warnings': [], 'nsites': 4}",0,113,200,0.16,0.26,284.76
106,mp-1029502,Ba(NbN2)2,"{'Ba': 1.0, 'Nb': 2.0, 'N': 4.0}",0.190724037,5.298203066,"{'G_Reuss': 28.0, 'G_VRH': 29.0, 'G_Voigt': 29.0, 'G_Voigt_Reuss_Hill': 29.0, 'K_Reuss': 31.0, 'K_VRH': 31.0, 'K_Voigt': 31.0, 'K_Voigt_Reuss_Hill': 31.0, 'elastic_anisotropy': 0.1, 'elastic_tensor': [[63.0, 15.0, 15.0, 0.0, 0.0, 0.0], [15.0, 63.0, 15.0, 0.0, 0.0, 0.0], [15.0, 15.0, 63.0, 0.0, 0.0, 0.0], [0.0, 0.0, 0.0, 32.0, 0.0, 0.0], [0.0, 0.0, 0.0, 0.0, 32.0, 0.0], [0.0, 0.0, 0.0, 0.0, 0.0, 32.0]], 'homogeneous_poisson': 0.15, 'poisson_ratio': 0.15, 'universal_anisotropy': 0.1, 'elastic_tensor_original': [[62.98049999628349, 15.256777096961834, 15.242861482861024, 0.0, 0.0, 0.0], [14.98074120460287, 62.89807487501678, 15.008006224166584, 0.0, 0.0, 0.0], [14.766722016810796, 14.723261841866499, 62.825160691906945, 0.0, 0.0, 0.0], [-0.0009160329708208042, -0.0005713497738930699, -0.00014443327617503297, 32.132840217025766, 0.0, 0.0], [-0.006586897393289364, 0.017237493178403673, -0.007310530440250972, 0.0, 32.173767100829295, 0.0], [0.0, 0.0, 0.0, 0.0, 0.0, 32.153303775594146]], 'compliance_tensor': [[17.5, -3.4, -3.4, 0.0, 0.0, 0.0], [-3.4, 17.5, -3.4, 0.0, 0.0, 0.0], [-3.4, -3.4, 17.5, 0.0, 0.0, 0.0], [0.0, 0.0, 0.0, 31.1, 0.0, 0.0], [0.0, 0.0, 0.0, 0.0, 31.1, 0.0], [0.0, 0.0, 0.0, 0.0, 0.0, 31.1]], 'warnings': [], 'nsites': 84}",0,29,31,0.1,0.15,66.7
107,mp-1029903,LiNbN2,"{'Li': 1.0, 'Nb': 1.0, 'N': 2.0}",0.153143623,4.359774617,"{'G_Reuss': 50.0, 'G_VRH': 58.0, 'G_Voigt': 66.0, 'G_Voigt_Reuss_Hill': 58.0, 'K_Reuss': 104.0, 'K_VRH': 112.0, 'K_Voigt': 120.0, 'K_Voigt_Reuss_Hill': 112.0, 'elastic_anisotropy': 1.71, 'elastic_tensor': [[147.0, 78.0, 75.0, 0.0, 0.0, 0.0], [78.0, 124.0, 89.0, 0.0, 0.0, 0.0], [75.0, 89.0, 324.0, 0.0, 0.0, 0.0], [0.0, 0.0, 0.0, 97.0, 0.0, 0.0], [0.0, 0.0, 0.0, 0.0, 79.0, 0.0], [0.0, 0.0, 0.0, 0.0, 0.0, 37.0]], 'homogeneous_poisson': 0.28, 'poisson_ratio': 0.28, 'universal_anisotropy': 1.71, 'elastic_tensor_original': [[323.61564880583416, 74.80751723375977, 89.36058600501062, 0.0, 0.0, 0.0], [74.81598914134514, 146.7975706185089, 78.52794134451048, 0.0, 0.0, 0.0], [88.73744246177401, 77.73482322721489, 123.97417613279582, 0.0, 0.0, 0.0], [-0.004132369490404597, 0.012127552055222878, 0.0071962299744769255, 37.213699532832784, 0.0, 0.0], [0.0008805957808307744, -0.0017067349497736047, 0.00037537295572703317, 0.0, 96.80485426897421, 0.0], [-0.017858037264582422, -0.027278380363069413, 0.14355108737049047, 0.0, 0.0, 79.17620329804096]], 'compliance_tensor': [[10.4, -6.0, -0.7, 0.0, 0.0, 0.0], [-6.0, 13.5, -2.3, 0.0, -0.0, 0.0], [-0.7, -2.3, 3.9, 0.0, 0.0, 0.0], [0.0, 0.0, 0.0, 10.3, 0.0, 0.0], [0.0, -0.0, 0.0, 0.0, 12.6, 0.0], [0.0, 0.0, 0.0, 0.0, 0.0, 26.9]], 'warnings': [], 'nsites': 16}",0,58,112,1.71,0.28,148.48
108,mp-12647,TbNbO4,"{'Tb': 1.0, 'Nb': 1.0, 'O': 4.0}",0.515881812,6.800064763,"{'G_Reuss': 50.0, 'G_VRH': 54.0, 'G_Voigt': 58.0, 'G_Voigt_Reuss_Hill': 54.0, 'K_Reuss': 131.0, 'K_VRH': 136.0, 'K_Voigt': 140.0, 'K_Voigt_Reuss_Hill': 136.0, 'elastic_anisotropy': 0.83, 'elastic_tensor': [[266.0, 84.0, 105.0, 0.0, -5.0, 0.0], [84.0, 208.0, 79.0, 0.0, 14.0, 0.0], [105.0, 79.0, 250.0, 0.0, 35.0, 0.0], [0.0, 0.0, 0.0, 47.0, 0.0, 2.0], [-5.0, 14.0, 35.0, 0.0, 41.0, 0.0], [0.0, 0.0, 0.0, 2.0, 0.0, 49.0]], 'homogeneous_poisson': 0.32, 'poisson_ratio': 0.32, 'universal_anisotropy': 0.83, 'elastic_tensor_original': [[266.2609518080664, 84.41522965823856, 108.60349352260205, -7.600051989583546e-06, -3.6185453533393477, -7.600051989583546e-06], [84.19298912287488, 208.09410645132462, 82.00132990663383, -1.8599720080257357e-05, 15.351555364080744, 0.0], [102.21083040769076, 76.66054407047174, 250.3199715265023, 0.0, 37.143606134019755, 0.0], [-4.096746325006049e-09, 0.0, -8.338944077811395e-08, 46.53337950556283, -4.374307564288917e-08, 2.286097545975841], [-7.066654188648247, 11.742414833275085, 31.89182919653057, 1.1000035628734545e-06, 41.25503742363783, -1.1000035628734545e-06], [-8.753125438467163e-08, 0.0, -3.537793199777108e-09, 1.9741676685253238, -4.5534515696364326e-08, 48.84461300332266]], 'compliance_tensor': [[5.100406061534131, -1.460033209592583, -2.0826802378193157, -3.4577374917229203e-09, 2.8827829225876362, 1.5765055303277024e-08], [-1.4600332095925828, 5.889403953284999, -1.0839443062476142, 1.0553599556660563e-08, -1.2159881867369258, 1.0554430553185422e-08], [-2.0826802378193165, -1.083944306247614, 5.882412713795895, 1.735080202768091e-08, -4.83567851141031, -2.7838866319151176e-09], [-3.4577374917229182e-09, 1.0553599556660563e-08, 1.735080202768091e-08, 21.533010524352274, 1.6274356175096237e-08, -0.9390197883392993], [2.882782922587637, -1.2159881867369258, -4.83567851141031, 1.627435617509622e-08, 29.0563471239554, 1.535955638790712e-08], [1.5765055303277007e-08, 1.0554430553185427e-08, -2.783886631915119e-09, -0.9390197883392996, 1.5359556387907093e-08, 20.513965842268174]], 'warnings': ['Structure contains a rare earth element'], 'nsites': 12}",0,54,136,0.83,0.32,142.56
109,mp-20144,NbCrP,"{'Nb': 1.0, 'Cr': 1.0, 'P': 1.0}",0.157230954,7.08015918,"{'G_Reuss': 111.0, 'G_VRH': 114.0, 'G_Voigt': 117.0, 'G_Voigt_Reuss_Hill': 114.0, 'K_Reuss': 212.0, 'K_VRH': 212.0, 'K_Voigt': 212.0, 'K_Voigt_Reuss_Hill': 212.0, 'elastic_anisotropy': 0.28, 'elastic_tensor': [[352.0, 112.0, 170.0, 0.0, 0.0, 0.0], [112.0, 375.0, 153.0, 0.0, 0.0, 0.0], [170.0, 153.0, 311.0, 0.0, 0.0, 0.0], [0.0, 0.0, 0.0, 143.0, 0.0, 0.0], [0.0, 0.0, 0.0, 0.0, 131.0, 0.0], [0.0, 0.0, 0.0, 0.0, 0.0, 110.0]], 'homogeneous_poisson': 0.27, 'poisson_ratio': 0.27, 'universal_anisotropy': 0.28, 'elastic_tensor_original': [[310.6575991749252, 172.4827155869937, 153.03604176246373, 0.0, 0.0, 0.0], [167.52645443346924, 351.9175977260279, 111.63134463586577, 0.0, 0.0, 0.0], [152.97664932478756, 111.52297646422699, 374.90429408664914, 0.0, 0.0, 0.0], [0.0007026497959463806, 0.0007859731050834022, 0.0006761698036372174, 110.44800393520282, 0.0, 0.0], [0.0018473595420007971, 0.0023296469593239895, 0.002042416512262989, 0.0, 142.78457061775634, 0.0], [-0.0007480278425340903, -0.0010023015755745888, -0.0018325095472923477, 0.0, 0.0, 130.5208771798186]], 'compliance_tensor': [[3.9, -0.4, -2.0, 0.0, -0.0, 0.0], [-0.4, 3.4, -1.5, 0.0, 0.0, 0.0], [-2.0, -1.5, 5.0, 0.0, 0.0, 0.0], [0.0, 0.0, 0.0, 7.0, 0.0, 0.0], [-0.0, 0.0, 0.0, 0.0, 7.7, 0.0], [0.0, 0.0, 0.0, 0.0, 0.0, 9.1]], 'warnings': [], 'nsites': 12}",0,114,212,0.28,0.27,289.56
110,mp-20279,NbInSe2,"{'Nb': 1.0, 'In': 1.0, 'Se': 2.0}",0.148583667,6.219207227,"{'G_Reuss': 12.0, 'G_VRH': 20.0, 'G_Voigt': 27.0, 'G_Voigt_Reuss_Hill': 20.0, 'K_Reuss': 44.0, 'K_VRH': 44.0, 'K_Voigt': 45.0, 'K_Voigt_Reuss_Hill': 44.0, 'elastic_anisotropy': 5.77, 'elastic_tensor': [[105.0, 28.0, 11.0, 0.0, 0.0, 0.0], [28.0, 105.0, 11.0, 0.0, 0.0, 0.0], [11.0, 11.0, 88.0, 0.0, 0.0, 0.0], [0.0, 0.0, 0.0, 6.0, 0.0, 0.0], [0.0, 0.0, 0.0, 0.0, 6.0, 0.0], [0.0, 0.0, 0.0, 0.0, 0.0, 39.0]], 'homogeneous_poisson': 0.31, 'poisson_ratio': 0.31, 'universal_anisotropy': 5.77, 'elastic_tensor_original': [[104.92283723547908, 27.176127140142142, 12.63523165094858, 0.0, 0.0, 0.0], [28.142639347707124, 105.87044711216157, 13.069321867591844, 0.0, 0.0, 0.0], [10.134442298891011, 10.13444133909823, 88.44509294328932, 0.0, 0.0, 0.0], [-3.2506542455440216e-05, -4.011662438674991e-05, -6.513323240471461e-05, 6.3026460252347976, 0.0, 0.0], [-3.8163403208503634e-05, -6.0909736547695545e-05, 2.9906543550472984e-05, 0.0, 5.9236112366543425, 0.0], [-2.2693110014019898e-05, -3.724645917271454e-05, -1.012959848268505e-05, 0.0, 0.0, 38.56876181195565]], 'compliance_tensor': [[10.3, -2.6, -1.0, 0.0, 0.0, -0.0], [-2.6, 10.3, -1.0, 0.0, -0.0, -0.0], [-1.0, -1.0, 11.6, 0.0, -0.0, 0.0], [-0.0, 0.0, 0.0, 163.6, -0.0, 0.0], [0.0, 0.0, -0.0, -0.0, 163.6, 0.0], [-0.0, -0.0, 0.0, 0.0, -0.0, 25.8]], 'warnings': [], 'nsites': 4}",0,20,44,5.77,0.31,52.4
111,mp-20335,MnNbP,"{'Mn': 1.0, 'Nb': 1.0, 'P': 1.0}",0.104252613,7.462931908,"{'G_Reuss': 94.0, 'G_VRH': 100.0, 'G_Voigt': 106.0, 'G_Voigt_Reuss_Hill': 100.0, 'K_Reuss': 227.0, 'K_VRH': 228.0, 'K_Voigt': 229.0, 'K_Voigt_Reuss_Hill': 228.0, 'elastic_anisotropy': 0.68, 'elastic_tensor': [[371.0, 111.0, 211.0, 0.0, 0.0, 0.0], [111.0, 344.0, 190.0, 0.0, 0.0, 0.0], [211.0, 190.0, 324.0, 0.0, 0.0, 0.0], [0.0, 0.0, 0.0, 141.0, 0.0, 0.0], [0.0, 0.0, 0.0, 0.0, 118.0, 0.0], [0.0, 0.0, 0.0, 0.0, 0.0, 95.0]], 'homogeneous_poisson': 0.31, 'poisson_ratio': 0.31, 'universal_anisotropy': 0.68, 'elastic_tensor_original': [[324.2233125228756, 212.00933523838452, 195.08291880588214, 0.0, 0.0, 0.0], [209.9156650304861, 371.2766337896119, 113.59470217085602, 0.0, 0.0, 0.0], [185.45318441512487, 108.24254841589976, 343.9986908557405, 0.0, 0.0, 0.0], [-0.12412266480497455, -0.1727112259390312, -0.2685756397074621, 95.0559191291379, 0.0, 0.0], [-0.0022643585579494815, -0.0023052222175582175, -0.0023171986748533042, 0.0, 140.96318897472932, 0.0], [-0.0009588717554197297, -0.0010466717540475819, -0.0008371749844601145, 0.0, 0.0, 118.38075544142062]], 'compliance_tensor': [[4.3, 0.2, -2.9, 0.0, 0.0, 0.0], [0.2, 4.3, -2.7, 0.0, -0.0, 0.0], [-2.9, -2.7, 6.6, 0.0, 0.0, 0.0], [0.0, 0.0, 0.0, 7.1, 0.0, 0.0], [0.0, -0.0, 0.0, 0.0, 8.4, 0.0], [0.0, 0.0, 0.0, 0.0, 0.0, 10.5]], 'warnings': [], 'nsites': 12}",0,100,228,0.68,0.31,262
112,mp-21248,NbSiIr,"{'Nb': 1.0, 'Si': 1.0, 'Ir': 1.0}",0.107003227,11.48774668,"{'G_Reuss': 119.0, 'G_VRH': 121.0, 'G_Voigt': 123.0, 'G_Voigt_Reuss_Hill': 121.0, 'K_Reuss': 244.0, 'K_VRH': 244.0, 'K_Voigt': 245.0, 'K_Voigt_Reuss_Hill': 244.0, 'elastic_anisotropy': 0.17, 'elastic_tensor': [[374.0, 150.0, 188.0, 0.0, 0.0, 0.0], [150.0, 444.0, 179.0, 0.0, 0.0, 0.0], [188.0, 179.0, 353.0, 0.0, 0.0, 0.0], [0.0, 0.0, 0.0, 129.0, 0.0, 0.0], [0.0, 0.0, 0.0, 0.0, 138.0, 0.0], [0.0, 0.0, 0.0, 0.0, 0.0, 130.0]], 'homogeneous_poisson': 0.29, 'poisson_ratio': 0.29, 'universal_anisotropy': 0.17, 'elastic_tensor_original': [[353.0958074375735, 187.90429660778906, 178.7978004309631, 0.0, 0.0, 0.0], [187.94285765094472, 373.72088742290737, 149.79396744574564, 0.0, 0.0, 0.0], [178.2348852359618, 150.61378117491327, 444.282943894652, 0.0, 0.0, 0.0], [0.0036631598565175305, 0.002457734271923666, 0.010017083794059868, 129.95724973982598, 0.0, 0.0], [-1.6436681776935587e-05, -3.7423367739775186e-05, 1.3836679388501275e-05, 0.0, 128.67337947085858, 0.0], [0.008189184447631278, -0.010298509785135844, -0.02817940677468552, 0.0, 0.0, 138.03868960756913]], 'compliance_tensor': [[3.8, -0.6, -1.7, 0.0, 0.0, 0.0], [-0.6, 2.9, -1.2, 0.0, -0.0, 0.0], [-1.7, -1.2, 4.3, 0.0, 0.0, 0.0], [0.0, 0.0, 0.0, 7.8, 0.0, 0.0], [0.0, -0.0, 0.0, 0.0, 7.2, 0.0], [0.0, 0.0, 0.0, 0.0, 0.0, 7.7]], 'warnings': [], 'nsites': 12}",0,121,244,0.17,0.29,312.18
113,mp-21449,NbCoP,"{'Nb': 1.0, 'Co': 1.0, 'P': 1.0}",0.127319912,7.877527057,"{'G_Reuss': 115.0, 'G_VRH': 117.0, 'G_Voigt': 118.0, 'G_Voigt_Reuss_Hill': 117.0, 'K_Reuss': 238.0, 'K_VRH': 238.0, 'K_Voigt': 238.0, 'K_Voigt_Reuss_Hill': 238.0, 'elastic_anisotropy': 0.1, 'elastic_tensor': [[377.0, 147.0, 184.0, 0.0, 0.0, 0.0], [147.0, 390.0, 176.0, 0.0, 0.0, 0.0], [184.0, 176.0, 364.0, 0.0, 0.0, 0.0], [0.0, 0.0, 0.0, 133.0, 0.0, 0.0], [0.0, 0.0, 0.0, 0.0, 126.0, 0.0], [0.0, 0.0, 0.0, 0.0, 0.0, 121.0]], 'homogeneous_poisson': 0.29, 'poisson_ratio': 0.29, 'universal_anisotropy': 0.1, 'elastic_tensor_original': [[363.8988998556957, 183.7935376436412, 175.92051067667072, 0.0, 0.0, 0.0], [184.64690554967646, 376.85734213464485, 146.460758321364, 0.0, 0.0, 0.0], [175.88986054492062, 146.66383484284017, 390.33636597086854, 0.0, 0.0, 0.0], [-0.17776686258996552, -0.18369357976516226, -0.18023213915679978, 121.17409642739865, 0.0, 0.0], [0.045434022280331214, -0.054033434510123754, 0.008870281985041981, 0.0, 132.7606352209348, 0.0], [-0.0001595131840292019, -0.00013645653894478997, -0.00016523317867773193, 0.0, 0.0, 126.30337052558923]], 'compliance_tensor': [[3.7, -0.7, -1.5, 0.0, -0.0, 0.0], [-0.7, 3.4, -1.3, 0.0, -0.0, 0.0], [-1.5, -1.3, 4.1, 0.0, 0.0, 0.0], [0.0, 0.0, 0.0, 7.5, 0.0, 0.0], [-0.0, -0.0, 0.0, 0.0, 7.9, 0.0], [0.0, 0.0, 0.0, 0.0, 0.0, 8.3]], 'warnings': [], 'nsites': 12}",0,117,238,0.1,0.29,301.86
114,mp-22637,HfNbP,"{'Hf': 1.0, 'Nb': 1.0, 'P': 1.0}",0.109937654,9.894290736,"{'G_Reuss': 96.0, 'G_VRH': 99.0, 'G_Voigt': 103.0, 'G_Voigt_Reuss_Hill': 99.0, 'K_Reuss': 179.0, 'K_VRH': 179.0, 'K_Voigt': 179.0, 'K_Voigt_Reuss_Hill': 179.0, 'elastic_anisotropy': 0.38, 'elastic_tensor': [[309.0, 80.0, 149.0, 0.0, 0.0, 0.0], [80.0, 324.0, 121.0, 0.0, 0.0, 0.0], [149.0, 121.0, 276.0, 0.0, 0.0, 0.0], [0.0, 0.0, 0.0, 122.0, 0.0, 0.0], [0.0, 0.0, 0.0, 0.0, 129.0, 0.0], [0.0, 0.0, 0.0, 0.0, 0.0, 78.0]], 'homogeneous_poisson': 0.27, 'poisson_ratio': 0.27, 'universal_anisotropy': 0.38, 'elastic_tensor_original': [[276.3866638500088, 148.6369338392126, 120.70944771659644, 0.0, 0.0, 0.0], [149.43495508301817, 309.4357703481288, 80.28734109190614, 0.0, 0.0, 0.0], [121.44375761934275, 78.9869890943976, 323.8604354807993, 0.0, 0.0, 0.0], [4.143997245901048e-05, 1.1393329367039924e-05, -3.48032522000404e-05, 78.45973339186601, 0.0, 0.0], [-0.00017544018170125364, 4.4833160698287355e-05, -2.725684634951688e-05, 0.0, 121.61198795747524, 0.0], [-0.010180192716889525, -0.003211241278269087, 0.018615246669648918, 0.0, 0.0, 128.87580310131028]], 'compliance_tensor': [[4.4, -0.2, -2.3, 0.0, 0.0, 0.0], [-0.2, 3.7, -1.5, 0.0, 0.0, 0.0], [-2.3, -1.5, 5.5, 0.0, 0.0, 0.0], [0.0, 0.0, 0.0, 8.2, 0.0, 0.0], [0.0, 0.0, 0.0, 0.0, 7.8, 0.0], [0.0, 0.0, 0.0, 0.0, 0.0, 12.7]], 'warnings': [], 'nsites': 12}",0,99,179,0.38,0.27,251.46