,mp_id,Formula,Composition,IPF,Density,Elastic_Tensor,E_above_Hull,G_VRH,K_VRH,Elastic_Anisotropy,poisson_ratio,Y_Modulus
165,mp-865857,YbNbRu2,"{'Yb': 1.0, 'Nb': 1.0, 'Ru': 2.0}",0.150517793,11.62432815,"{'G_Reuss': 60.0, 'G_VRH': 64.0, 'G_Voigt': 67.0, 'G_Voigt_Reuss_Hill': 64.0, 'K_Reuss': 164.0, 'K_VRH': 164.0, 'K_Voigt': 164.0, 'K_Voigt_Reuss_Hill': 164.0, 'elastic_anisotropy': 0.59, 'elastic_tensor': [[292.0, 101.0, 101.0, 0.0, 0.0, 0.0], [101.0, 292.0, 101.0, 0.0, 0.0, 0.0], [101.0, 101.0, 292.0, 0.0, 0.0, 0.0], [0.0, 0.0, 0.0, 48.0, 0.0, 0.0], [0.0, 0.0, 0.0, 0.0, 48.0, 0.0], [0.0, 0.0, 0.0, 0.0, 0.0, 48.0]], 'homogeneous_poisson': 0.33, 'poisson_ratio': 0.33, 'universal_anisotropy': 0.59, 'elastic_tensor_original': [[289.4474017795482, 99.21931401435819, 99.21931401435819, 0.0, 0.0, 0.0], [103.87817223503862, 295.9261231787196, 103.87817223503862, 0.0, 0.0, 0.0], [99.22729404401476, 99.22729404401476, 289.4514451187334, 0.0, 0.0, 0.0], [-0.0003520698396700398, -0.00015774326149700085, -0.00024279655609822697, 48.0877920978485, 0.0, 0.0], [-0.0003469531753329214, -6.228330496938212e-05, -0.0004665131208862914, 0.0, 48.08804058106867, 0.0], [-0.00036997649818112, -0.0001043599524743756, 1.1676661350515382e-05, 0.0, 0.0, 48.08809132771224]], 'compliance_tensor': [[4.2, -1.1, -1.1, -0.0, -0.0, 0.0], [-1.1, 4.2, -1.1, 0.0, -0.0, -0.0], [-1.1, -1.1, 4.2, -0.0, 0.0, -0.0], [-0.0, 0.0, -0.0, 20.8, -0.0, -0.0], [-0.0, -0.0, 0.0, -0.0, 20.8, -0.0], [0.0, -0.0, -0.0, -0.0, -0.0, 20.8]], 'warnings': ['Contains a rare earth element'], 'nsites': 4}",0,64,164,0.59,0.33,170.24
166,mp-867795,ScNbTc2,"{'Sc': 1.0, 'Nb': 1.0, 'Tc': 2.0}",0.130076931,8.355342749,"{'G_Reuss': 64.0, 'G_VRH': 66.0, 'G_Voigt': 67.0, 'G_Voigt_Reuss_Hill': 66.0, 'K_Reuss': 186.0, 'K_VRH': 186.0, 'K_Voigt': 186.0, 'K_Voigt_Reuss_Hill': 186.0, 'elastic_anisotropy': 0.24, 'elastic_tensor': [[300.0, 129.0, 129.0, 0.0, 0.0, 0.0], [129.0, 300.0, 129.0, 0.0, 0.0, 0.0], [129.0, 129.0, 300.0, 0.0, 0.0, 0.0], [0.0, 0.0, 0.0, 55.0, 0.0, 0.0], [0.0, 0.0, 0.0, 0.0, 55.0, 0.0], [0.0, 0.0, 0.0, 0.0, 0.0, 55.0]], 'homogeneous_poisson': 0.34, 'poisson_ratio': 0.34, 'universal_anisotropy': 0.24, 'elastic_tensor_original': [[299.9724444956178, 129.03647209864891, 129.03647209864891, 0.0, 0.0, 0.0], [129.02771978836466, 299.9599245525029, 129.02771978836466, 0.0, 0.0, 0.0], [129.03208587177738, 129.03208587177738, 299.9686393993224, 0.0, 0.0, 0.0], [0.00013071662409345805, 4.8769984116544305e-05, 8.822330460022118e-05, 54.973422878904124, 0.0, 0.0], [-0.00048187984305476787, -0.0006334964603410354, -0.0004262531945058315, 0.0, 54.972987922379104, 0.0], [0.0004152265314321528, 0.0003110098987072712, 0.0004372265242658576, 0.0, 0.0, 54.972962812387294]], 'compliance_tensor': [[4.5, -1.4, -1.4, -0.0, 0.0, 0.0], [-1.4, 4.5, -1.4, 0.0, -0.0, 0.0], [-1.4, -1.4, 4.5, 0.0, 0.0, -0.0], [-0.0, 0.0, 0.0, 18.2, -0.0, 0.0], [0.0, -0.0, 0.0, -0.0, 18.2, 0.0], [0.0, 0.0, -0.0, 0.0, 0.0, 18.2]], 'warnings': [], 'nsites': 4}",0,66,186,0.24,0.34,176.88
167,mp-8994,Rb2NbF6,"{'Rb': 2.0, 'Nb': 1.0, 'F': 6.0}",0.301948686,3.831981333,"{'G_Reuss': 11.0, 'G_VRH': 11.0, 'G_Voigt': 11.0, 'G_Voigt_Reuss_Hill': 11.0, 'K_Reuss': 23.0, 'K_VRH': 23.0, 'K_Voigt': 23.0, 'K_Voigt_Reuss_Hill': 23.0, 'elastic_anisotropy': 0.15, 'elastic_tensor': [[40.0, 17.0, 15.0, 2.0, 0.0, 0.0], [17.0, 40.0, 15.0, -2.0, 0.0, 0.0], [15.0, 15.0, 35.0, 0.0, 0.0, 0.0], [2.0, -2.0, 0.0, 11.0, 0.0, 0.0], [0.0, 0.0, 0.0, 0.0, 11.0, 2.0], [0.0, 0.0, 0.0, 0.0, 2.0, 12.0]], 'homogeneous_poisson': 0.3, 'poisson_ratio': 0.3, 'universal_anisotropy': 0.15, 'elastic_tensor_original': [[39.74698198147775, 15.685275450771984, 14.943151572415493, -0.32923265980378175, 0.0, 0.0], [17.389781070072946, 40.53699064769456, 15.626747927649957, 1.6525625452814128, 0.0, 0.0], [15.575240924989142, 15.575243215042578, 34.542423921428274, 0.0, 0.0, 0.0], [-2.074798214555508, 2.438891015885809, 0.2169221042379913, 10.489737116724283, 0.0, 0.0], [-0.40767786634907144, -0.19126830172931056, -0.3763558780766405, -0.18413135483048546, 10.641624568135576, -2.2388783780552597], [0.0850341097699356, 0.07607359020438881, 0.09665643172926555, -0.005678008305892956, -2.1711287920122295, 11.504609607072894]], 'compliance_tensor': [[33.8, -10.5, -10.4, -8.0, -0.0, 0.0], [-10.5, 33.8, -10.4, 8.0, -0.0, 0.0], [-10.4, -10.4, 38.3, -0.0, 0.0, -0.0], [-8.0, 8.0, -0.0, 97.5, 0.0, -0.0], [-0.0, -0.0, 0.0, 0.0, 97.5, -16.0], [0.0, 0.0, -0.0, -0.0, -16.0, 88.4]], 'warnings': [], 'nsites': 9}",0,11,23,0.15,0.3,28.6
168,mp-8995,Cs2NbF6,"{'Cs': 2.0, 'Nb': 1.0, 'F': 6.0}",0.327368083,4.226923113,"{'G_Reuss': 8.0, 'G_VRH': 9.0, 'G_Voigt': 9.0, 'G_Voigt_Reuss_Hill': 9.0, 'K_Reuss': 20.0, 'K_VRH': 20.0, 'K_Voigt': 21.0, 'K_Voigt_Reuss_Hill': 20.0, 'elastic_anisotropy': 0.43, 'elastic_tensor': [[37.0, 18.0, 13.0, 2.0, 0.0, 0.0], [18.0, 37.0, 13.0, -2.0, 0.0, 0.0], [13.0, 13.0, 25.0, 0.0, 0.0, 0.0], [2.0, -2.0, 0.0, 9.0, 0.0, 0.0], [0.0, 0.0, 0.0, 0.0, 9.0, 2.0], [0.0, 0.0, 0.0, 0.0, 2.0, 10.0]], 'homogeneous_poisson': 0.31, 'poisson_ratio': 0.31, 'universal_anisotropy': 0.43, 'elastic_tensor_original': [[37.04594079063797, 15.74281433918051, 12.634408153634604, -2.152513031885225, 0.0, 0.0], [19.773926494384366, 37.3668939231551, 14.130856752482693, 2.16127750799477, 0.0, 0.0], [13.398489866921954, 13.398490316941192, 25.378427202196747, 0.0, 0.0, 0.0], [-2.6438565401715195, 2.4302268360136994, -0.058269121110234155, 8.97478774889349, 0.0, 0.0], [0.13259508792813535, 0.178034595302087, 0.1187398253853695, 0.013894953166737433, 8.787703293557591, -2.7027462279951013], [0.06881217203803305, -0.009461065990765778, -0.01718767192177362, 0.011359312870643797, -2.5435512870051635, 9.331420985646465]], 'compliance_tensor': [[40.5, -16.1, -12.9, -15.8, -0.0, 0.0], [-16.1, 40.5, -12.9, 15.8, -0.0, 0.0], [-12.9, -12.9, 53.0, 0.0, -0.0, -0.0], [-15.8, 15.8, 0.0, 121.5, 0.0, -0.0], [0.0, -0.0, 0.0, 0.0, 121.5, -31.7], [0.0, 0.0, -0.0, -0.0, -31.7, 113.2]], 'warnings': [], 'nsites': 9}",0,9,20,0.43,0.31,23.58
169,mp-9595,NbInO4,"{'Nb': 1.0, 'In': 1.0, 'O': 4.0}",0.51869494,5.954351129,"{'G_Reuss': 56.0, 'G_VRH': 59.0, 'G_Voigt': 61.0, 'G_Voigt_Reuss_Hill': 59.0, 'K_Reuss': 160.0, 'K_VRH': 161.0, 'K_Voigt': 162.0, 'K_Voigt_Reuss_Hill': 161.0, 'elastic_anisotropy': 0.44, 'elastic_tensor': [[260.0, 101.0, 136.0, 0.0, -17.0, 0.0], [101.0, 222.0, 133.0, 0.0, 4.0, 0.0], [136.0, 133.0, 235.0, 0.0, -2.0, 0.0], [0.0, 0.0, 0.0, 48.0, 0.0, 12.0], [-17.0, 4.0, -2.0, 0.0, 81.0, 0.0], [0.0, 0.0, 0.0, 12.0, 0.0, 61.0]], 'homogeneous_poisson': 0.34, 'poisson_ratio': 0.34, 'universal_anisotropy': 0.44, 'elastic_tensor_original': [[221.8342441203526, 131.9018587694636, 102.1700648917293, 3.9728740464042436, 0.0, 0.0], [135.04356959701886, 235.29296996378443, 137.40213343665803, -2.5883304877340234, 0.0, 0.0], [100.60733016497183, 135.21433478627097, 259.637474114123, -17.37964491868438, 0.0, 0.0], [4.929855219327766, -2.3451903767986417, -16.229471454151586, 80.93899402169173, 0.0, 0.0], [0.006954527571521183, 0.0015101616441400233, 0.003962950981203866, -0.004023551047180177, 60.825600555276466, 12.719802044947658], [1.846668339979257e-06, -1.8993350494702854e-05, 2.3160020929557893e-05, -3.771336741315986e-05, 11.925541993308695, 48.04308798464407]], 'compliance_tensor': [[5.8, -1.0, -2.8, 0.0, 1.2, 0.0], [-1.0, 7.0, -3.4, 0.0, -0.7, 0.0], [-2.8, -3.4, 7.8, 0.0, -0.1, 0.0], [0.0, 0.0, 0.0, 22.0, 0.0, -4.4], [1.2, -0.7, -0.1, 0.0, 12.6, 0.0], [0.0, 0.0, 0.0, -4.4, 0.0, 17.3]], 'warnings': [], 'nsites': 12}",0,59,161,0.44,0.34,158.12
170,mp-972323,TaNbTc2,"{'Ta': 1.0, 'Nb': 1.0, 'Tc': 2.0}",0.123370157,11.97658369,"{'G_Reuss': 104.0, 'G_VRH': 108.0, 'G_Voigt': 113.0, 'G_Voigt_Reuss_Hill': 108.0, 'K_Reuss': 195.0, 'K_VRH': 195.0, 'K_Voigt': 195.0, 'K_Voigt_Reuss_Hill': 195.0, 'elastic_anisotropy': 0.44, 'elastic_tensor': [[401.0, 92.0, 92.0, 0.0, 0.0, 0.0], [92.0, 401.0, 92.0, 0.0, 0.0, 0.0], [92.0, 92.0, 401.0, 0.0, 0.0, 0.0], [0.0, 0.0, 0.0, 85.0, 0.0, 0.0], [0.0, 0.0, 0.0, 0.0, 85.0, 0.0], [0.0, 0.0, 0.0, 0.0, 0.0, 85.0]], 'homogeneous_poisson': 0.27, 'poisson_ratio': 0.27, 'universal_anisotropy': 0.44, 'elastic_tensor_original': [[400.87068440533454, 92.25530739467456, 92.25530739467456, 0.0, 0.0, 0.0], [92.25530739467456, 400.87068440533454, 92.25530739467456, 0.0, 0.0, 0.0], [92.25530739467456, 92.25530739467456, 400.87068440533454, 0.0, 0.0, 0.0], [0.0, 0.0, 0.0, 84.8745628515761, 0.009121194978268661, 0.0], [0.0, 0.0, 0.0, -0.00912119497826813, 84.8745628515761, 0.0], [0.0, 0.0, 0.0, 0.0, -0.0091267949137942, 84.87456665153235]], 'compliance_tensor': [[2.7, -0.5, -0.5, -0.0, 0.0, -0.0], [-0.5, 2.7, -0.5, 0.0, -0.0, 0.0], [-0.5, -0.5, 2.7, 0.0, 0.0, -0.0], [-0.0, 0.0, 0.0, 11.8, 0.0, 0.0], [0.0, -0.0, 0.0, 0.0, 11.8, 0.0], [-0.0, 0.0, 0.0, 0.0, 0.0, 11.8]], 'warnings': [], 'nsites': 4}",0,108,195,0.44,0.27,274.32
171,mp-9808,Rb3NbO8,"{'Rb': 3.0, 'Nb': 1.0, 'O': 8.0}",0.591649305,3.697465904,"{'G_Reuss': 12.0, 'G_VRH': 12.0, 'G_Voigt': 13.0, 'G_Voigt_Reuss_Hill': 12.0, 'K_Reuss': 26.0, 'K_VRH': 27.0, 'K_Voigt': 28.0, 'K_Voigt_Reuss_Hill': 27.0, 'elastic_anisotropy': 0.82, 'elastic_tensor': [[63.0, 18.0, 15.0, 0.0, 0.0, 0.0], [18.0, 63.0, 15.0, 0.0, 0.0, 0.0], [15.0, 15.0, 34.0, 0.0, 0.0, 0.0], [0.0, 0.0, 0.0, 9.0, 0.0, 0.0], [0.0, 0.0, 0.0, 0.0, 9.0, 0.0], [0.0, 0.0, 0.0, 0.0, 0.0, 10.0]], 'homogeneous_poisson': 0.3, 'poisson_ratio': 0.3, 'universal_anisotropy': 0.82, 'elastic_tensor_original': [[63.137481857714874, 17.68761210983107, 14.360654807351024, 0.0, 0.0, 0.0], [17.68761210983107, 63.137481857714874, 14.360654807351024, 0.0, 0.0, 0.0], [15.262808111957908, 15.262808111957908, 33.745887248090625, 0.0, 0.0, 0.0], [-0.03179317660891233, -0.03063886030741284, -0.08635541601484317, 9.362128771628857, 0.0, 0.0], [-0.0278359545274439, -0.03018837378325735, -0.08400740009097009, 0.0, 9.364611000843606, 0.0], [0.028832304285452703, 0.017025404657248777, 0.032648093088017895, 0.0, 0.0, 10.135637785996757]], 'compliance_tensor': [[18.4, -3.6, -6.5, 0.0, -0.0, 0.0], [-3.6, 18.4, -6.5, 0.0, -0.0, 0.0], [-6.5, -6.5, 35.3, 0.0, 0.0, 0.0], [0.0, 0.0, 0.0, 106.8, 0.0, 0.0], [-0.0, -0.0, 0.0, 0.0, 106.8, 0.0], [0.0, 0.0, 0.0, 0.0, 0.0, 98.7]], 'warnings': [], 'nsites': 12}",0,12,27,0.82,0.3,31.2
172,mp-9989,Nb2AsC,"{'Nb': 2.0, 'As': 1.0, 'C': 1.0}",0.101666922,7.756326812,"{'G_Reuss': 114.0, 'G_VRH': 119.0, 'G_Voigt': 123.0, 'G_Voigt_Reuss_Hill': 119.0, 'K_Reuss': 205.0, 'K_VRH': 206.0, 'K_Voigt': 207.0, 'K_Voigt_Reuss_Hill': 206.0, 'elastic_anisotropy': 0.4, 'elastic_tensor': [[327.0, 110.0, 162.0, 0.0, 0.0, 0.0], [110.0, 327.0, 162.0, 0.0, 0.0, 0.0], [162.0, 162.0, 340.0, 0.0, 0.0, 0.0], [0.0, 0.0, 0.0, 160.0, 0.0, 0.0], [0.0, 0.0, 0.0, 0.0, 160.0, 0.0], [0.0, 0.0, 0.0, 0.0, 0.0, 109.0]], 'homogeneous_poisson': 0.26, 'poisson_ratio': 0.26, 'universal_anisotropy': 0.4, 'elastic_tensor_original': [[328.9124235211646, 107.4999069657822, 160.6096183242292, 0.0, 0.0, 0.0], [108.63928042822833, 328.67301591287537, 160.6656354642514, 0.0, 0.0, 0.0], [162.5246278997197, 162.52469693339174, 339.52758486238076, 0.0, 0.0, 0.0], [0.0004785500027391367, 0.00023141292984213714, 0.0002680600478668615, 160.28995751383945, 0.0, 0.0], [-2.765992288441677e-05, -0.00010503970716506305, 1.479662541803185e-05, 0.0, 160.38342012765693, 0.0], [0.00034856905603877704, -1.330663063332382e-05, -3.024658475738921e-05, 0.0, 0.0, 107.2184389559888]], 'compliance_tensor': [[4.1, -0.5, -1.7, 0.0, 0.0, 0.0], [-0.5, 4.1, -1.7, 0.0, -0.0, 0.0], [-1.7, -1.7, 4.5, -0.0, -0.0, -0.0], [0.0, 0.0, -0.0, 6.2, 0.0, -0.0], [0.0, -0.0, -0.0, 0.0, 6.2, -0.0], [0.0, 0.0, -0.0, -0.0, -0.0, 9.2]], 'warnings': [], 'nsites': 8}",0,119,206,0.4,0.26,299.88
173,mp-549490,KNb4O5F,"{'K': 1.0, 'Nb': 4.0, 'O': 5.0, 'F': 1.0}",0.44493007,5.59473081,"{'G_Reuss': 77.0, 'G_VRH': 84.0, 'G_Voigt': 90.0, 'G_Voigt_Reuss_Hill': 84.0, 'K_Reuss': 132.0, 'K_VRH': 139.0, 'K_Voigt': 145.0, 'K_Voigt_Reuss_Hill': 139.0, 'elastic_anisotropy': 1.0, 'elastic_tensor': [[376.0, 55.0, 64.0, 0.0, 0.0, 0.0], [55.0, 376.0, 64.0, 0.0, 0.0, 0.0], [64.0, 64.0, 186.0, 0.0, 0.0, 0.0], [0.0, 0.0, 0.0, 56.0, 0.0, 0.0], [0.0, 0.0, 0.0, 0.0, 56.0, 0.0], [0.0, 0.0, 0.0, 0.0, 0.0, 89.0]], 'homogeneous_poisson': 0.25, 'poisson_ratio': 0.25, 'universal_anisotropy': 1.0, 'elastic_tensor_original': [[376.01697558623215, 55.32952371385963, 58.63811970512639, 0.0, 0.0, 0.0], [55.329882879469025, 376.01697558623215, 58.63831002631846, 0.0, 0.0, 0.0], [70.31963893146343, 70.1992010840129, 186.2830586494224, -0.033079358100893845, -0.03329415782882336, 1.247628819723496], [0.0, 0.0, 0.0, 56.23343916006224, 0.0, 0.0], [0.0, 0.0, 0.0, 0.0, 56.23343916006221, 0.0], [0.8866019401446976, -0.8865990625184839, 0.0, 0.0, 0.0, 88.65502083874962]], 'compliance_tensor': [[2.851979964769391, -0.2663320322508475, -0.8945613546173367, 0.0, 1.379800990379908e-20, 2.8575635420225213e-19], [-0.2663320322508475, 2.8519614515705802, -0.8945584511574093, 0.0, 1.3797965119873833e-20, -6.905014846005035e-19], [-0.8945613546173369, -0.8945584511574093, 5.987160956737864, 0.0, -9.234794880228914e-20, 1.4003123683913383e-19], [0.0, 0.0, 0.0, 17.782984503419137, 0.0, 0.0], [1.3798009903799084e-20, 1.3797965119873836e-20, -9.234794880228914e-20, 0.0, 17.783042221484216, -2.1598880644403797e-39], [2.4406554645066497e-19, -2.440640974506968e-19, -2.272494010992418e-25, 0.0, 3.505169847562942e-45, 11.279677005759805]], 'warnings': [], 'nsites': 11}",0,84,139,1,0.25,210
174,mp-7251,Ba2YNbO6,"{'Ba': 2.0, 'Y': 1.0, 'Nb': 1.0, 'O': 6.0}",0.541216102,5.840609635,"{'G_Reuss': 75.0, 'G_VRH': 77.0, 'G_Voigt': 79.0, 'G_Voigt_Reuss_Hill': 77.0, 'K_Reuss': 134.0, 'K_VRH': 134.0, 'K_Voigt': 134.0, 'K_Voigt_Reuss_Hill': 134.0, 'elastic_anisotropy': 0.22, 'elastic_tensor': [[266.0, 68.0, 68.0, 0.0, 0.0, 0.0], [68.0, 266.0, 68.0, 0.0, 0.0, 0.0], [68.0, 68.0, 266.0, 0.0, 0.0, 0.0], [0.0, 0.0, 0.0, 65.0, 0.0, 0.0], [0.0, 0.0, 0.0, 0.0, 65.0, 0.0], [0.0, 0.0, 0.0, 0.0, 0.0, 65.0]], 'homogeneous_poisson': 0.26, 'poisson_ratio': 0.26, 'universal_anisotropy': 0.22, 'elastic_tensor_original': [[266.40268066410744, 67.80060064335419, 67.80060064335419, 0.0, 0.0, 0.0], [67.80040720683476, 266.40284975858503, 67.80040720683476, 0.0, 0.0, 0.0], [67.80072547101722, 67.80072547101722, 266.4033141351084, 0.0, 0.0, 0.0], [-0.00018184672557445148, -3.6270011749381135e-05, -6.0336686212276454e-05, 64.97835843930284, 0.0, 0.0], [4.455001443190875e-05, -2.5216674835017555e-05, 0.00014292337963239463, 0.0, 64.97909412954115, 0.0], [0.00013555671057965634, 9.33433635713253e-05, 0.0005411701753087706, 0.0, 0.0, 64.97867732607278]], 'compliance_tensor': [[4.2, -0.8, -0.8, -0.0, -0.0, 0.0], [-0.8, 4.2, -0.8, 0.0, -0.0, -0.0], [-0.8, -0.8, 4.2, -0.0, 0.0, -0.0], [-0.0, 0.0, -0.0, 15.4, -0.0, -0.0], [-0.0, -0.0, 0.0, -0.0, 15.4, -0.0], [0.0, -0.0, -0.0, -0.0, -0.0, 15.4]], 'warnings': [], 'nsites': 10}",0,77,134,0.22,0.26,194.04