,mp_id,Formula,Composition,IPF,Density,Elastic_Tensor,E_above_Hull,G_VRH,K_VRH,Elastic_Anisotropy,poisson_ratio,Y_Modulus
26,mp-2053,Nb3Sb,"{'Nb': 3.0, 'Sb': 1.0}",0.124409192,8.873377465,"{'G_Reuss': 80.0, 'G_VRH': 82.0, 'G_Voigt': 84.0, 'G_Voigt_Reuss_Hill': 82.0, 'K_Reuss': 174.0, 'K_VRH': 174.0, 'K_Voigt': 174.0, 'K_Voigt_Reuss_Hill': 174.0, 'elastic_anisotropy': 0.23, 'elastic_tensor': [[316.0, 103.0, 103.0, 0.0, 0.0, 0.0], [103.0, 316.0, 103.0, 0.0, 0.0, 0.0], [103.0, 103.0, 316.0, 0.0, 0.0, 0.0], [0.0, 0.0, 0.0, 69.0, 0.0, 0.0], [0.0, 0.0, 0.0, 0.0, 69.0, 0.0], [0.0, 0.0, 0.0, 0.0, 0.0, 69.0]], 'homogeneous_poisson': 0.3, 'poisson_ratio': 0.3, 'universal_anisotropy': 0.23, 'elastic_tensor_original': [[316.12946910147207, 102.8432002894183, 102.8432002894183, 0.0, 0.0, 0.0], [102.84398301711792, 316.1309527746273, 102.84398301711792, 0.0, 0.0, 0.0], [102.84390611037811, 102.84390611037811, 316.1307556687212, 0.0, 0.0, 0.0], [-0.0006408860891705532, 0.00037334652556865147, 0.0003149229850395796, 69.15204995483337, 0.0, 0.0], [0.00026426971684977325, -0.00040345274852229737, 3.4953323107803095e-05, 0.0, 69.14936615406334, 0.0], [2.696984004838931e-05, -0.0001392701105016267, 0.0002215128172436286, 0.0, 0.0, 69.15136382839664]], 'compliance_tensor': [[3.8, -0.9, -0.9, 0.0, -0.0, -0.0], [-0.9, 3.8, -0.9, -0.0, 0.0, 0.0], [-0.9, -0.9, 3.8, 0.0, -0.0, 0.0], [0.0, -0.0, 0.0, 14.5, -0.0, -0.0], [-0.0, 0.0, -0.0, -0.0, 14.5, 0.0], [-0.0, 0.0, 0.0, -0.0, 0.0, 14.5]], 'warnings': [], 'nsites': 8}",0,82,174,0.23,0.3,213.2
27,mp-2059,NbAs,"{'Nb': 1.0, 'As': 1.0}",0.098413008,7.805231679,"{'G_Reuss': 83.0, 'G_VRH': 88.0, 'G_Voigt': 93.0, 'G_Voigt_Reuss_Hill': 88.0, 'K_Reuss': 159.0, 'K_VRH': 162.0, 'K_Voigt': 164.0, 'K_Voigt_Reuss_Hill': 162.0, 'elastic_anisotropy': 0.66, 'elastic_tensor': [[267.0, 144.0, 109.0, 0.0, 0.0, 0.0], [144.0, 267.0, 109.0, 0.0, 0.0, 0.0], [109.0, 109.0, 216.0, 0.0, 0.0, 0.0], [0.0, 0.0, 0.0, 88.0, 0.0, 0.0], [0.0, 0.0, 0.0, 0.0, 88.0, 0.0], [0.0, 0.0, 0.0, 0.0, 0.0, 161.0]], 'homogeneous_poisson': 0.27, 'poisson_ratio': 0.27, 'universal_anisotropy': 0.66, 'elastic_tensor_original': [[266.53432225387695, 144.16618219284604, 108.09348647599319, 0.0, 0.0, 0.0], [144.16671644800599, 266.53370099135844, 108.09325263286225, 0.0, 0.0, 0.0], [109.32875467792987, 109.32875467792987, 215.67703839469073, 0.0, 0.0, 0.0], [-4.530337946138204e-05, 2.082002119945904e-05, -8.025674838370985e-05, 88.31483164174266, 0.0, 0.0], [-0.00011527678404035193, -0.00016000349624816767, -0.00014313681240789747, 0.0, 88.31478643502999, 0.0], [4.9803389662600266e-05, 9.284343834309421e-05, -9.541010791364083e-05, 0.0, 0.0, 161.12682389170473]], 'compliance_tensor': [[5.7, -2.4, -1.7, -0.0, 0.0, 0.0], [-2.4, 5.7, -1.7, -0.0, -0.0, 0.0], [-1.7, -1.7, 6.3, 0.0, 0.0, 0.0], [-0.0, -0.0, 0.0, 11.3, 0.0, 0.0], [0.0, -0.0, 0.0, 0.0, 11.3, 0.0], [0.0, 0.0, 0.0, 0.0, 0.0, 6.2]], 'warnings': [], 'nsites': 4}",0,88,162,0.66,0.27,223.52
28,mp-20689,Nb3B2,"{'Nb': 3.0, 'B': 2.0}",0.116680646,7.752632754,"{'G_Reuss': 167.0, 'G_VRH': 168.0, 'G_Voigt': 169.0, 'G_Voigt_Reuss_Hill': 168.0, 'K_Reuss': 239.0, 'K_VRH': 240.0, 'K_Voigt': 240.0, 'K_Voigt_Reuss_Hill': 240.0, 'elastic_anisotropy': 0.04, 'elastic_tensor': [[438.0, 130.0, 130.0, 0.0, 0.0, 0.0], [130.0, 487.0, 113.0, 0.0, 0.0, 0.0], [130.0, 113.0, 487.0, 0.0, 0.0, 0.0], [0.0, 0.0, 0.0, 148.0, 0.0, 0.0], [0.0, 0.0, 0.0, 0.0, 174.0, 0.0], [0.0, 0.0, 0.0, 0.0, 0.0, 174.0]], 'homogeneous_poisson': 0.22, 'poisson_ratio': 0.22, 'universal_anisotropy': 0.04, 'elastic_tensor_original': [[487.1842995221334, 113.27333510963996, 127.483905909339, 0.0, 0.0, 0.0], [113.27296097826134, 487.18465282681933, 127.48395666809992, 0.0, 0.0, 0.0], [131.61042744157587, 131.61042744157587, 437.7519089089061, 0.0, 0.0, 0.0], [-3.09999636398675e-07, -2.266664027203432e-07, -2.233330715475787e-07, 174.3540181112932, 0.0, 0.0], [7.466657894863681e-07, 7.833324113218019e-07, 6.333325884187657e-07, 0.0, 174.35401753796054, 0.0], [5.8589933601729065e-05, 1.4866649819283231e-05, 2.8263301304250593e-05, 0.0, 0.0, 147.64307603830494]], 'compliance_tensor': [[2.6, -0.6, -0.6, 0.0, 0.0, -0.0], [-0.6, 2.3, -0.4, -0.0, 0.0, 0.0], [-0.6, -0.4, 2.3, -0.0, 0.0, 0.0], [0.0, -0.0, -0.0, 6.8, 0.0, -0.0], [0.0, 0.0, 0.0, 0.0, 5.7, 0.0], [-0.0, 0.0, 0.0, -0.0, 0.0, 5.7]], 'warnings': [], 'nsites': 10}",0,168,240,0.04,0.22,409.92
29,mp-2123,Nb3Au2,"{'Nb': 3.0, 'Au': 2.0}",0.189810615,12.3323016,"{'G_Reuss': 59.0, 'G_VRH': 61.0, 'G_Voigt': 62.0, 'G_Voigt_Reuss_Hill': 61.0, 'K_Reuss': 173.0, 'K_VRH': 173.0, 'K_Voigt': 173.0, 'K_Voigt_Reuss_Hill': 173.0, 'elastic_anisotropy': 0.26, 'elastic_tensor': [[234.0, 153.0, 132.0, 0.0, 0.0, 0.0], [153.0, 234.0, 132.0, 0.0, 0.0, 0.0], [132.0, 132.0, 253.0, 0.0, 0.0, 0.0], [0.0, 0.0, 0.0, 64.0, 0.0, 0.0], [0.0, 0.0, 0.0, 0.0, 64.0, 0.0], [0.0, 0.0, 0.0, 0.0, 0.0, 81.0]], 'homogeneous_poisson': 0.34, 'poisson_ratio': 0.34, 'universal_anisotropy': 0.26, 'elastic_tensor_original': [[234.45613117736366, 153.3087134916617, 131.7825520133496, 0.0, 0.0, 0.0], [153.30793797485669, 234.4535408139985, 131.78299098624038, 0.0, 0.0, 0.0], [132.1360453741407, 132.1360453741407, 252.71939536410747, 0.0, 0.0, 0.0], [1.4133366872087698e-06, -2.6926730536789844e-05, 7.366350806652023e-05, 64.44092076323963, 0.0, 0.0], [-0.0007649018143795354, -0.00034998083016864087, -0.0003988409460669156, 0.0, 64.44049990557468, 0.0], [0.00044239103444847466, 0.00023750722203257402, 0.0002722773033364174, 0.0, 0.0, 81.4679086073247]], 'compliance_tensor': [[8.2, -4.2, -2.1, -0.0, 0.0, 0.0], [-4.2, 8.2, -2.1, 0.0, -0.0, -0.0], [-2.1, -2.1, 6.1, -0.0, -0.0, -0.0], [-0.0, 0.0, -0.0, 15.5, -0.0, -0.0], [0.0, -0.0, -0.0, -0.0, 15.5, -0.0], [0.0, -0.0, -0.0, -0.0, -0.0, 12.3]], 'warnings': [], 'nsites': 5}",0,61,173,0.26,0.34,163.48
30,mp-22722,NbSiPd,"{'Nb': 1.0, 'Si': 1.0, 'Pd': 1.0}",0.119433554,8.188774737,"{'G_Reuss': 77.0, 'G_VRH': 81.0, 'G_Voigt': 85.0, 'G_Voigt_Reuss_Hill': 81.0, 'K_Reuss': 195.0, 'K_VRH': 195.0, 'K_Voigt': 195.0, 'K_Voigt_Reuss_Hill': 195.0, 'elastic_anisotropy': 0.52, 'elastic_tensor': [[281.0, 119.0, 167.0, 0.0, 0.0, 0.0], [119.0, 312.0, 164.0, 0.0, 0.0, 0.0], [167.0, 164.0, 261.0, 0.0, 0.0, 0.0], [0.0, 0.0, 0.0, 93.0, 0.0, 0.0], [0.0, 0.0, 0.0, 0.0, 114.0, 0.0], [0.0, 0.0, 0.0, 0.0, 0.0, 86.0]], 'homogeneous_poisson': 0.32, 'poisson_ratio': 0.32, 'universal_anisotropy': 0.52, 'elastic_tensor_original': [[260.57447704695596, 167.81878422858992, 163.34323149102124, 0.0, 0.0, 0.0], [166.47624266957158, 281.01133876068076, 119.43305453730834, 0.0, 0.0, 0.0], [165.60720316767134, 119.10142184931439, 312.23917413878604, 0.0, 0.0, 0.0], [7.369664343453301e-05, 4.658998531487411e-05, 4.837998474807862e-05, 85.53771977110095, 0.0, 0.0], [0.0019046524992287392, -0.04428493976985185, 0.0020436255284858548, 0.0, 92.87742258466687, 0.0], [-4.099324531768672e-05, -6.434986183394404e-05, 1.2299973590954444e-05, 0.0, 0.0, 114.4255183872216]], 'compliance_tensor': [[5.8, -0.4, -3.5, 0.0, 0.0, 0.0], [-0.4, 4.8, -2.8, 0.0, -0.0, 0.0], [-3.5, -2.8, 7.8, 0.0, 0.0, 0.0], [0.0, 0.0, 0.0, 10.8, 0.0, 0.0], [0.0, -0.0, 0.0, 0.0, 8.7, 0.0], [0.0, 0.0, 0.0, 0.0, 0.0, 11.7]], 'warnings': [], 'nsites': 12}",0,81,195,0.52,0.32,213.84
31,mp-2311,NbO,"{'Nb': 1.0, 'O': 1.0}",0.414355048,7.010466904,"{'G_Reuss': 133.0, 'G_VRH': 140.0, 'G_Voigt': 147.0, 'G_Voigt_Reuss_Hill': 140.0, 'K_Reuss': 243.0, 'K_VRH': 243.0, 'K_Voigt': 243.0, 'K_Voigt_Reuss_Hill': 243.0, 'elastic_anisotropy': 0.54, 'elastic_tensor': [[519.0, 105.0, 105.0, 0.0, 0.0, 0.0], [105.0, 519.0, 105.0, 0.0, 0.0, 0.0], [105.0, 105.0, 519.0, 0.0, 0.0, 0.0], [0.0, 0.0, 0.0, 107.0, 0.0, 0.0], [0.0, 0.0, 0.0, 0.0, 107.0, 0.0], [0.0, 0.0, 0.0, 0.0, 0.0, 107.0]], 'homogeneous_poisson': 0.26, 'poisson_ratio': 0.26, 'universal_anisotropy': 0.54, 'elastic_tensor_original': [[518.7286223047026, 105.97478464879333, 105.97478464879333, 0.0, 0.0, 0.0], [105.20865128956743, 519.7617459830967, 105.20865128956743, 0.0, 0.0, 0.0], [105.20178716634406, 105.20178716634406, 519.7534027807409, 0.0, 0.0, 0.0], [0.0007372393713640848, 0.0007206527188407289, 0.00029957641122125715, 107.14908466848308, 0.0, 0.0], [-0.02430434260928668, -0.02155813495094791, -0.02530422842336166, 0.0, 107.14486455541487, 0.0], [0.0009022225640181541, 0.0010715890862678858, 0.0009512625222022637, 0.0, 0.0, 107.14905999183746]], 'compliance_tensor': [[2.1, -0.3, -0.3, -0.0, -0.0, 0.0], [-0.3, 2.1, -0.3, 0.0, -0.0, -0.0], [-0.3, -0.3, 2.1, -0.0, 0.0, 0.0], [-0.0, 0.0, -0.0, 9.3, -0.0, -0.0], [-0.0, -0.0, 0.0, -0.0, 9.3, -0.0], [0.0, -0.0, 0.0, -0.0, -0.0, 9.3]], 'warnings': [], 'nsites': 6}",0,140,243,0.54,0.26,352.8
32,mp-24154,NbH2,"{'Nb': 1.0, 'H': 2.0}",0.096473437,6.584074606,"{'G_Reuss': 80.0, 'G_VRH': 81.0, 'G_Voigt': 81.0, 'G_Voigt_Reuss_Hill': 81.0, 'K_Reuss': 178.0, 'K_VRH': 178.0, 'K_Voigt': 178.0, 'K_Voigt_Reuss_Hill': 178.0, 'elastic_anisotropy': 0.02, 'elastic_tensor': [[278.0, 129.0, 129.0, 0.0, 0.0, 0.0], [129.0, 278.0, 129.0, 0.0, 0.0, 0.0], [129.0, 129.0, 278.0, 0.0, 0.0, 0.0], [0.0, 0.0, 0.0, 85.0, 0.0, 0.0], [0.0, 0.0, 0.0, 0.0, 85.0, 0.0], [0.0, 0.0, 0.0, 0.0, 0.0, 85.0]], 'homogeneous_poisson': 0.3, 'poisson_ratio': 0.3, 'universal_anisotropy': 0.02, 'elastic_tensor_original': [[277.7479878068147, 128.56732948159038, 128.56830206966032, 5.643833549691974e-05, 0.00017209730437032329, -0.0004376056166681596], [128.54262205622396, 277.7251250950338, 128.54564281494797, -0.0005228422583271399, 0.000433408653424817, -0.0007698452345855799], [128.5334813324491, 128.53430217612618, 277.71503042570373, -0.0006449283407684178, -0.0003065653068549105, 0.00012529551477221142], [9.410340109188971e-05, 3.695997201745441e-05, 5.775669585143954e-05, 84.7722898130807, 0.0, 0.0], [0.0010785554048905843, 0.0007621759984430928, 0.0004524730223156335, 0.0, 84.77769505415638, 0.0], [0.0008882726080411685, 0.00022448681652203112, 0.0004152531079603778, 0.0, 0.0, 84.77760874082661]], 'compliance_tensor': [[5.1, -1.6, -1.6, -0.0, -0.0, 0.0], [-1.6, 5.1, -1.6, 0.0, -0.0, -0.0], [-1.6, -1.6, 5.1, -0.0, 0.0, -0.0], [-0.0, 0.0, -0.0, 11.8, -0.0, -0.0], [-0.0, -0.0, 0.0, -0.0, 11.8, -0.0], [0.0, -0.0, -0.0, -0.0, -0.0, 11.8]], 'warnings': [], 'nsites': 3}",0,81,178,0.02,0.3,210.6
33,mp-2478,NbSi2,"{'Nb': 1.0, 'Si': 2.0}",0.081770639,5.578318615,"{'G_Reuss': 140.0, 'G_VRH': 140.0, 'G_Voigt': 141.0, 'G_Voigt_Reuss_Hill': 140.0, 'K_Reuss': 174.0, 'K_VRH': 175.0, 'K_Voigt': 176.0, 'K_Voigt_Reuss_Hill': 175.0, 'elastic_anisotropy': 0.05, 'elastic_tensor': [[346.0, 71.0, 78.0, 0.0, 0.0, 0.0], [71.0, 346.0, 78.0, 0.0, 0.0, 0.0], [78.0, 78.0, 437.0, 0.0, 0.0, 0.0], [0.0, 0.0, 0.0, 133.0, 0.0, 0.0], [0.0, 0.0, 0.0, 0.0, 133.0, 0.0], [0.0, 0.0, 0.0, 0.0, 0.0, 138.0]], 'homogeneous_poisson': 0.18, 'poisson_ratio': 0.18, 'universal_anisotropy': 0.05, 'elastic_tensor_original': [[347.4225460966801, 69.56205617453685, 77.89689929767864, 0.0, 0.0, 1.0729298589304888e-05], [69.69167012260294, 346.8832478283747, 77.50295793046179, 0.0, 0.0, 4.1595723284010644e-05], [77.90146364948767, 77.9014685290652, 436.6629086606721, 0.0, 0.0, 9.359256895459698e-06], [-0.00552014057632627, -0.005621985672585766, -2.775354938617141e-05, 133.07341732343417, 1.5946678860654773e-05, 0.0], [-4.105331086903015e-05, 2.162332150150934e-05, 1.8836656360047565e-05, 0.0, 132.7697188880843, 0.0], [0.015940908516720975, -0.0038124028845978528, -0.07089989606841283, 0.0, 0.0, 136.85582629637108]], 'compliance_tensor': [[3.0992615811798596, -0.5289377542449425, -0.4579573054298327, 9.854990200777611e-22, 1.3208164396832402e-22, -7.426067294272155e-07], [-0.5289377542449425, 3.09926082798204, -0.4579572497823091, -9.874443778207912e-22, 1.2822843673439876e-22, -7.42606639313289e-07], [-0.4579573054298328, -0.457957249782309, 2.453285520414766, 5.211117673858841e-24, -4.881197094000776e-23, 1.0973006566264337e-07], [1.1293118704312953e-21, -1.830102769763661e-21, 1.2972518577641555e-22, 7.523233088233843, -9.013121434162992e-07, -6.4558504751627476e-24], [1.2623665514814272e-21, -1.700901892499362e-21, 7.570209716254518e-23, -9.013121434162993e-07, 7.52323400240059, -1.6596437033705878e-24], [-7.426067296402786e-07, -7.426066392769262e-07, 1.0973006569412623e-07, -6.4560523825978534e-24, -1.659845610805669e-24, 7.256397917651918]], 'warnings': [], 'nsites': 9}",0.004182222,140,175,0.05,0.18,330.4
34,mp-2580,NbB,"{'Nb': 1.0, 'B': 1.0}",0.112081368,7.429359322,"{'G_Reuss': 196.0, 'G_VRH': 197.0, 'G_Voigt': 199.0, 'G_Voigt_Reuss_Hill': 197.0, 'K_Reuss': 264.0, 'K_VRH': 264.0, 'K_Voigt': 264.0, 'K_Voigt_Reuss_Hill': 264.0, 'elastic_anisotropy': 0.08, 'elastic_tensor': [[474.0, 141.0, 167.0, 0.0, 0.0, 0.0], [141.0, 513.0, 122.0, 0.0, 0.0, 0.0], [167.0, 122.0, 528.0, 0.0, 0.0, 0.0], [0.0, 0.0, 0.0, 188.0, 0.0, 0.0], [0.0, 0.0, 0.0, 0.0, 237.0, 0.0], [0.0, 0.0, 0.0, 0.0, 0.0, 208.0]], 'homogeneous_poisson': 0.2, 'poisson_ratio': 0.2, 'universal_anisotropy': 0.08, 'elastic_tensor_original': [[473.57645889958246, 141.23733229756078, 168.60856898547743, 0.0, 0.0, 0.0], [141.43472218917884, 513.3679849588194, 123.50916757013086, 0.0, 0.0, 0.0], [164.7364596386826, 121.14408248624186, 528.0055014409347, 0.0, 0.0, 0.0], [0.00011780985476928489, -0.00010045353205253958, 4.293321951865086e-05, 188.29568237937664, 0.0, 0.0], [-0.00015565364713470076, -0.0003750740894781571, -0.00023011713057993936, 0.0, 237.15894313580526, 0.0], [-7.74634946728488e-05, 0.00011852691353274488, 0.00026294721433029616, 0.0, 0.0, 208.32341537942708]], 'compliance_tensor': [[2.5, -0.5, -0.7, 0.0, 0.0, 0.0], [-0.5, 2.2, -0.3, 0.0, 0.0, 0.0], [-0.7, -0.3, 2.2, 0.0, 0.0, -0.0], [0.0, 0.0, 0.0, 5.3, 0.0, 0.0], [0.0, 0.0, 0.0, 0.0, 4.2, 0.0], [0.0, 0.0, -0.0, 0.0, 0.0, 4.8]], 'warnings': [], 'nsites': 4}",0,197,264,0.08,0.2,472.8
35,mp-2634,NbN,"{'Nb': 1.0, 'N': 1.0}",0.150972156,7.984187205,"{'G_Reuss': 207.0, 'G_VRH': 211.0, 'G_Voigt': 214.0, 'G_Voigt_Reuss_Hill': 211.0, 'K_Reuss': 312.0, 'K_VRH': 313.0, 'K_Voigt': 314.0, 'K_Voigt_Reuss_Hill': 313.0, 'elastic_anisotropy': 0.16, 'elastic_tensor': [[562.0, 200.0, 137.0, 0.0, 0.0, 0.0], [200.0, 562.0, 137.0, 0.0, 0.0, 0.0], [137.0, 137.0, 753.0, 0.0, 0.0, 0.0], [0.0, 0.0, 0.0, 210.0, 0.0, 0.0], [0.0, 0.0, 0.0, 0.0, 210.0, 0.0], [0.0, 0.0, 0.0, 0.0, 0.0, 181.0]], 'homogeneous_poisson': 0.23, 'poisson_ratio': 0.23, 'universal_anisotropy': 0.16, 'elastic_tensor_original': [[553.692166669895, 208.0095819904012, 137.90824862258071, 0.0, 0.0, 0.0], [207.60668488673466, 554.0265823317235, 137.6316682103768, 0.0, 0.0, 0.0], [136.55082199122097, 136.5507187170899, 753.3105424953114, 0.0, 0.0, 0.0], [6.713650673052226e-05, 3.209659020222318e-05, 6.069652206994145e-05, 209.6398379482138, 0.0, 0.0], [-8.23369876082486e-05, -4.735030343445569e-05, -4.098054334044392e-05, 0.0, 209.898390136483, 0.0], [-6.8256554273496e-05, -2.0420027582977783e-05, -1.7325651520940646e-07, 0.0, 0.0, 188.8077920151717]], 'compliance_tensor': [[2.1, -0.7, -0.3, 0.0, 0.0, -0.0], [-0.7, 2.1, -0.3, -0.0, -0.0, -0.0], [-0.3, -0.3, 1.4, -0.0, -0.0, 0.0], [-0.0, -0.0, -0.0, 4.8, -0.0, -0.0], [-0.0, -0.0, -0.0, -0.0, 4.8, -0.0], [-0.0, -0.0, 0.0, -0.0, -0.0, 5.5]], 'warnings': [], 'nsites': 2}",0,211,313,0.16,0.23,519.06
36,mp-2663,Nb3Pt,"{'Nb': 3.0, 'Pt': 1.0}",0.129165596,11.15047725,"{'G_Reuss': 75.0, 'G_VRH': 80.0, 'G_Voigt': 85.0, 'G_Voigt_Reuss_Hill': 80.0, 'K_Reuss': 207.0, 'K_VRH': 207.0, 'K_Voigt': 207.0, 'K_Voigt_Reuss_Hill': 207.0, 'elastic_anisotropy': 0.68, 'elastic_tensor': [[373.0, 124.0, 124.0, 0.0, 0.0, 0.0], [124.0, 373.0, 124.0, 0.0, 0.0, 0.0], [124.0, 124.0, 373.0, 0.0, 0.0, 0.0], [0.0, 0.0, 0.0, 59.0, 0.0, 0.0], [0.0, 0.0, 0.0, 0.0, 59.0, 0.0], [0.0, 0.0, 0.0, 0.0, 0.0, 59.0]], 'homogeneous_poisson': 0.33, 'poisson_ratio': 0.33, 'universal_anisotropy': 0.68, 'elastic_tensor_original': [[372.86204164158596, 124.38382723371978, 124.38382723371978, 0.0, 0.0, 0.0], [124.38601428597934, 372.8615329873953, 124.38601428597934, 0.0, 0.0, 0.0], [124.38758021592723, 124.38758021592723, 372.86271984072545, 0.0, 0.0, 0.0], [7.690334798905423e-05, 0.00014483954741986737, -4.863011305549032e-06, 59.48663974446419, 0.0, 0.0], [0.0004118534146213867, -0.00039551227218623714, 0.0002511962469578145, 0.0, 59.48616696882105, 0.0], [0.00024964965043106264, 0.00019322680066560268, 0.00018043342814603303, 0.0, 0.0, 59.485330705939994]], 'compliance_tensor': [[3.2, -0.8, -0.8, -0.0, -0.0, 0.0], [-0.8, 3.2, -0.8, 0.0, -0.0, -0.0], [-0.8, -0.8, 3.2, -0.0, 0.0, -0.0], [-0.0, 0.0, -0.0, 16.8, -0.0, -0.0], [-0.0, -0.0, 0.0, -0.0, 16.8, -0.0], [0.0, -0.0, -0.0, -0.0, -0.0, 16.8]], 'warnings': [], 'nsites': 8}",0,80,207,0.68,0.33,212.8
37,mp-274,Nb5Sb4,"{'Nb': 5.0, 'Sb': 4.0}",0.108535151,8.117054467,"{'G_Reuss': 49.0, 'G_VRH': 55.0, 'G_Voigt': 60.0, 'G_Voigt_Reuss_Hill': 55.0, 'K_Reuss': 98.0, 'K_VRH': 98.0, 'K_Voigt': 98.0, 'K_Voigt_Reuss_Hill': 98.0, 'elastic_anisotropy': 1.11, 'elastic_tensor': [[176.0, 58.0, 58.0, 0.0, 0.0, 0.0], [58.0, 142.0, 94.0, -8.0, 0.0, 0.0], [58.0, 94.0, 142.0, 8.0, 0.0, 0.0], [0.0, -8.0, 8.0, 68.0, 0.0, 0.0], [0.0, 0.0, 0.0, 0.0, 74.0, 0.0], [0.0, 0.0, 0.0, 0.0, 0.0, 74.0]], 'homogeneous_poisson': 0.26, 'poisson_ratio': 0.26, 'universal_anisotropy': 1.11, 'elastic_tensor_original': [[142.28722701363213, 93.93405543416239, 56.777041299313915, 0.0, 0.0, -8.007844122655168], [93.63567315308012, 142.40102762258724, 57.21757405719262, 0.0, 0.0, 7.770343923247073], [58.3939056190311, 58.3939056190311, 175.88608655512957, 0.0, 0.0, -0.0002083118081885151], [0.10273170224184448, 0.012559147975595712, 0.056013081238319815, 74.17507745001483, 0.2228156191424268, -0.04728869394236024], [0.1594706663111785, -0.06309598300353887, 0.053728622819190906, -0.23032308394717707, 74.12273820623415, -0.12362417111735435], [-7.6891584527952475, 7.689158452795246, 0.0, 0.0, 0.0, 68.35549956262776]], 'compliance_tensor': [[6.770871674173774, -1.6543904503853213, -1.6543904503853213, -1.5780427070295436e-16, 2.177138455863263e-20, 1.9352340783517104e-20], [-1.6543904503853226, 13.209106988317174, -8.16566817460465, 2.4356617352142598, -7.134634198818507e-20, 9.551844451889113e-20], [-1.6543904503853204, -8.165668174604654, 13.20910698831718, -2.4356617352142607, 4.975887609839671e-21, -1.545144007764056e-19], [-5.268178143764196e-16, 2.43566173521426, -2.4356617352142598, 15.184489680113808, 4.191240123097333e-19, 2.84913072479041e-20], [2.1771384558632624e-20, -7.134634198818506e-20, 4.9758876098396595e-21, 4.1912401230973337e-19, 13.486375312742, 7.703015839025365e-23], [1.935234078351709e-20, 9.551844451889114e-20, -1.545144007764056e-19, 2.8491307247904113e-20, 7.703015839025365e-23, 13.486375312742002]], 'warnings': [], 'nsites': 9}",0,55,98,1.11,0.26,138.6