,mp_id,Formula,Composition,IPF,Density,Elastic_Tensor,E_above_Hull,G_VRH,K_VRH,Elastic_Anisotropy,poisson_ratio,Y_Modulus
115,mp-4043,NbCu3Se4,"{'Nb': 1.0, 'Cu': 3.0, 'Se': 4.0}",0.143236804,5.344951145,"{'G_Reuss': 22.0, 'G_VRH': 22.0, 'G_Voigt': 23.0, 'G_Voigt_Reuss_Hill': 22.0, 'K_Reuss': 33.0, 'K_VRH': 33.0, 'K_Voigt': 33.0, 'K_Voigt_Reuss_Hill': 33.0, 'elastic_anisotropy': 0.39, 'elastic_tensor': [[75.0, 12.0, 12.0, 0.0, 0.0, 0.0], [12.0, 75.0, 12.0, 0.0, 0.0, 0.0], [12.0, 12.0, 75.0, 0.0, 0.0, 0.0], [0.0, 0.0, 0.0, 18.0, 0.0, 0.0], [0.0, 0.0, 0.0, 0.0, 18.0, 0.0], [0.0, 0.0, 0.0, 0.0, 0.0, 18.0]], 'homogeneous_poisson': 0.22, 'poisson_ratio': 0.22, 'universal_anisotropy': 0.39, 'elastic_tensor_original': [[74.85232099681342, 12.322559397717713, 12.322559397717713, 0.0, 0.0, 0.0], [12.324745503802834, 74.85182802985123, 12.324745503802834, 0.0, 0.0, 0.0], [12.32308554863458, 12.32308554863458, 74.84794938844948, 0.0, 0.0, 0.0], [0.00025685305601749585, 2.934330165247924e-05, 0.00010692655122161588, 17.83474810107308, 0.0, 0.0], [0.0004587928379898701, 0.0002579330548514798, -0.00026286638285842384, 0.0, 17.83212766723561, 0.0], [-0.0005123161135356759, -0.000394962906904762, -0.0005736993805954556, 0.0, 0.0, 17.83193507744355]], 'compliance_tensor': [[14.0, -2.0, -2.0, 0.0, -0.0, -0.0], [-2.0, 14.0, -2.0, -0.0, 0.0, 0.0], [-2.0, -2.0, 14.0, -0.0, -0.0, 0.0], [0.0, -0.0, -0.0, 56.1, -0.0, -0.0], [-0.0, 0.0, -0.0, -0.0, 56.1, 0.0], [-0.0, 0.0, 0.0, -0.0, 0.0, 56.1]], 'warnings': [], 'nsites': 8}",0,22,33,0.39,0.22,53.68
116,mp-4364,NbGaCo2,"{'Nb': 1.0, 'Ga': 1.0, 'Co': 2.0}",0.14919867,8.743219427,"{'G_Reuss': 73.0, 'G_VRH': 79.0, 'G_Voigt': 85.0, 'G_Voigt_Reuss_Hill': 79.0, 'K_Reuss': 194.0, 'K_VRH': 194.0, 'K_Voigt': 194.0, 'K_Voigt_Reuss_Hill': 194.0, 'elastic_anisotropy': 0.84, 'elastic_tensor': [[259.0, 162.0, 162.0, 0.0, 0.0, 0.0], [162.0, 259.0, 162.0, 0.0, 0.0, 0.0], [162.0, 162.0, 259.0, 0.0, 0.0, 0.0], [0.0, 0.0, 0.0, 110.0, 0.0, 0.0], [0.0, 0.0, 0.0, 0.0, 110.0, 0.0], [0.0, 0.0, 0.0, 0.0, 0.0, 110.0]], 'homogeneous_poisson': 0.32, 'poisson_ratio': 0.32, 'universal_anisotropy': 0.84, 'elastic_tensor_original': [[262.99445277205166, 161.45811578509594, 161.45811578509594, 0.0, 0.0, 0.0], [162.15583865780707, 258.5649425746432, 162.15583865780707, 0.0, 0.0, 0.0], [161.3710037948734, 161.37139921651752, 255.46580588347706, -0.00042653889341791144, 0.0003821486936422578, -4.932244419517074e-05], [0.00020255669846079393, 0.00021212004087020904, 0.00020271670615177508, 109.96808745292626, 0.0, 0.0], [9.820338577465181e-05, 7.34000495209209e-05, 8.980004953750416e-05, 0.0, 109.96812004619713, 0.0], [-0.0003250334347069826, -0.0003396634365694177, -0.00033806677051473, 0.0, 0.0, 109.96811608625056]], 'compliance_tensor': [[7.4, -2.9, -2.9, -0.0, 0.0, -0.0], [-2.9, 7.4, -2.9, -0.0, -0.0, 0.0], [-2.9, -2.9, 7.4, 0.0, -0.0, -0.0], [-0.0, -0.0, 0.0, 9.1, -0.0, -0.0], [0.0, -0.0, -0.0, -0.0, 9.1, -0.0], [-0.0, 0.0, -0.0, -0.0, -0.0, 9.1]], 'warnings': [], 'nsites': 4}",0,79,194,0.84,0.32,208.56
117,mp-5370,ErNbO4,"{'Er': 1.0, 'Nb': 1.0, 'O': 4.0}",0.540063706,7.195147262,"{'G_Reuss': 54.0, 'G_VRH': 58.0, 'G_Voigt': 61.0, 'G_Voigt_Reuss_Hill': 58.0, 'K_Reuss': 143.0, 'K_VRH': 147.0, 'K_Voigt': 151.0, 'K_Voigt_Reuss_Hill': 147.0, 'elastic_anisotropy': 0.76, 'elastic_tensor': [[285.0, 87.0, 112.0, 0.0, -3.0, 0.0], [87.0, 223.0, 84.0, 0.0, 11.0, 0.0], [112.0, 84.0, 281.0, 0.0, 30.0, 0.0], [0.0, 0.0, 0.0, 49.0, 0.0, -0.0], [-3.0, 11.0, 30.0, 0.0, 42.0, 0.0], [0.0, 0.0, 0.0, -0.0, 0.0, 49.0]], 'homogeneous_poisson': 0.33, 'poisson_ratio': 0.33, 'universal_anisotropy': 0.76, 'elastic_tensor_original': [[284.96990405758237, 88.87764623457295, 113.74194505797726, 8.000015773137643e-06, -2.8031507267993847, 0.0], [85.81504775376837, 222.85921817885765, 85.42225489779273, 2.0199756033917485e-05, 13.224234282000108, 0.0], [110.78819515223658, 82.36360251506936, 280.97311405793886, 7.400047287348808e-06, 29.95451641359657, 0.0], [1.288198491278959e-09, 0.0, 8.72842895713933e-06, 48.61353732792691, 1.0783167945490207e-07, 0.7100999326270083], [-2.4297902681768684, 8.920458513474177, 29.939434683162915, 8.000092743818395e-07, 41.610130879710496, 0.0], [8.818013235210051e-08, 0.0, -2.8890517954955635e-07, -1.6090762602017055, 4.363458608627431e-06, 48.62137354918857]], 'compliance_tensor': [[4.556411091712807, -1.2592166591328975, -1.6365336211365336, 2.259155074075634e-07, 1.7999131454783268, -1.644881497150583e-08], [-1.2592166591328975, 5.4063573725343375, -1.02817774799481, -9.706962858415656e-07, -0.7777609479271157, -9.85330329250675e-09], [-1.6365336211365336, -1.0281777479948109, 4.875992372112475, -1.662228687104688e-06, -3.3389993843465295, -1.5199501710286145e-08], [2.2591550740756367e-07, -9.706962858415656e-07, -1.662228687104688e-06, 20.572141424621336, 1.0382462142511592e-07, 0.19018283271245315], [1.7999131454783261, -0.7777609479271153, -3.338999384346529, 1.0382462142511545e-07, 26.754286940938343, -1.8452966682857696e-06], [-1.644881497150575e-08, -9.853303292506837e-09, -1.5199501710286218e-08, 0.19018283271245318, -1.8452966682857685e-06, 20.568863686921397]], 'warnings': ['Structure contains a rare earth element'], 'nsites': 12}",0,58,147,0.76,0.33,154.28
118,mp-5387,YNbO4,"{'Y': 1.0, 'Nb': 1.0, 'O': 4.0}",0.527994087,5.316367767,"{'G_Reuss': 47.0, 'G_VRH': 51.0, 'G_Voigt': 56.0, 'G_Voigt_Reuss_Hill': 51.0, 'K_Reuss': 128.0, 'K_VRH': 132.0, 'K_Voigt': 136.0, 'K_Voigt_Reuss_Hill': 132.0, 'elastic_anisotropy': 1.05, 'elastic_tensor': [[262.0, 74.0, 103.0, 0.0, -7.0, 0.0], [74.0, 202.0, 77.0, 0.0, 9.0, 0.0], [103.0, 77.0, 253.0, 0.0, 34.0, 0.0], [0.0, 0.0, 0.0, 43.0, 0.0, 2.0], [-7.0, 9.0, 34.0, 0.0, 37.0, 0.0], [0.0, 0.0, 0.0, 2.0, 0.0, 45.0]], 'homogeneous_poisson': 0.33, 'poisson_ratio': 0.33, 'universal_anisotropy': 1.05, 'elastic_tensor_original': [[202.28539328338547, 66.74596247190274, 84.26947947209607, 0.5631618926737929, 0.0, 0.0], [66.844845121994, 194.6585331889525, 139.3349288626454, -27.568662723171407, 0.0, 0.0], [84.01034239193726, 137.56245162677817, 248.82716988801448, 19.927489732655808, 0.0, 0.0], [0.2932893667692556, -28.32137916302941, 21.09861781272417, 72.28250100724486, 0.0, 0.0], [0.01003404424255695, -0.07547359876502084, 0.058169092972237796, -0.030702635865329567, 46.201182788399656, -1.4625426142306874], [-0.04588412107245848, -0.06755801571037341, -0.04095602037788753, -0.008724554491154292, -1.2795377619185153, 41.97277668066283]], 'compliance_tensor': [[5.1, -1.2, -2.1, 0.0, 3.2, -0.0], [-1.2, 5.9, -1.2, 0.0, -0.4, 0.0], [-2.1, -1.2, 6.0, -0.0, -5.7, -0.0], [0.0, 0.0, -0.0, 23.3, -0.0, -1.2], [3.2, -0.4, -5.7, -0.0, 33.0, 0.0], [-0.0, 0.0, -0.0, -1.2, 0.0, 22.2]], 'warnings': [], 'nsites': 12}",0,51,132,1.05,0.33,135.66
119,mp-5443,Nb2SnC,"{'Nb': 2.0, 'Sn': 1.0, 'C': 1.0}",0.110208031,8.127472796,"{'G_Reuss': 77.0, 'G_VRH': 79.0, 'G_Voigt': 80.0, 'G_Voigt_Reuss_Hill': 79.0, 'K_Reuss': 160.0, 'K_VRH': 160.0, 'K_Voigt': 160.0, 'K_Voigt_Reuss_Hill': 160.0, 'elastic_anisotropy': 0.17, 'elastic_tensor': [[251.0, 97.0, 124.0, 0.0, 0.0, 0.0], [97.0, 251.0, 124.0, 0.0, 0.0, 0.0], [124.0, 124.0, 247.0, 0.0, 0.0, 0.0], [0.0, 0.0, 0.0, 94.0, 0.0, 0.0], [0.0, 0.0, 0.0, 0.0, 94.0, 0.0], [0.0, 0.0, 0.0, 0.0, 0.0, 77.0]], 'homogeneous_poisson': 0.29, 'poisson_ratio': 0.29, 'universal_anisotropy': 0.17, 'elastic_tensor_original': [[250.20410851901326, 97.53437097597258, 124.47592757679064, 0.0, 0.0, -1.7684227764909715e-05], [98.98154537821223, 250.57126943265666, 122.72400634521058, 0.0, 0.0, -4.413593584732972e-05], [125.23152971787167, 125.23163428844084, 247.3117553583823, 0.0, 0.0, -2.2078035119194785e-05], [-0.008828952517638856, -0.006386685586039391, -0.00825268016557969, 93.55585154816696, -1.6476651481878697e-05, 0.0], [7.740320162437723e-05, 1.0676788067827508e-05, 9.084654414392609e-05, -8.799995660999138e-07, 93.86830292665894, 0.0], [-0.159742010526732, -0.2250832272880758, -0.21449170569676737, 0.0, 0.0, 77.89319260315767]], 'compliance_tensor': [[5.5, -1.0, -2.3, 0.0, 0.0, 0.0], [-1.0, 5.5, -2.3, -0.0, -0.0, 0.0], [-2.3, -2.3, 6.3, -0.0, -0.0, -0.0], [0.0, -0.0, -0.0, 10.7, 0.0, 0.0], [0.0, 0.0, -0.0, 0.0, 10.7, 0.0], [0.0, 0.0, -0.0, 0.0, 0.0, 13.0]], 'warnings': [], 'nsites': 8}",0,79,160,0.17,0.29,203.82
120,mp-549720,NbI2O,"{'Nb': 1.0, 'I': 2.0, 'O': 1.0}",0.238513971,5.133429312,"{'G_Reuss': 2.0, 'G_VRH': 8.0, 'G_Voigt': 14.0, 'G_Voigt_Reuss_Hill': 8.0, 'K_Reuss': 4.0, 'K_VRH': 13.0, 'K_Voigt': 21.0, 'K_Voigt_Reuss_Hill': 13.0, 'elastic_anisotropy': 35.29, 'elastic_tensor': [[4.0, 1.0, 2.0, 0.0, -0.0, 0.0], [1.0, 91.0, 7.0, 0.0, -1.0, 0.0], [2.0, 7.0, 76.0, 0.0, 0.0, 0.0], [0.0, 0.0, 0.0, 16.0, 0.0, 0.0], [-0.0, -1.0, 0.0, 0.0, 2.0, 0.0], [0.0, 0.0, 0.0, 0.0, 0.0, 1.0]], 'homogeneous_poisson': 0.23, 'poisson_ratio': 0.23, 'universal_anisotropy': 35.29, 'elastic_tensor_original': [[91.14770404809327, 2.103500800795968, 6.14275666324301, 2.1914628953247854, 0.0, 0.0], [2.7451705399651027, 12.581835140401399, 18.018330263073096, 11.656708784770652, 0.0, 0.0], [6.419270592945303, 17.471456580600293, 36.57892827468715, 21.794237053273797, 0.0, 0.0], [2.6831125306097574, 11.373851225610094, 22.573819820534794, 16.813590468390093, 0.0, 0.0], [-0.011005028990100103, -0.06714944925542897, -0.06120915489343608, 0.01815860747884835, 11.180117538169313, 7.461489954879323], [-0.022245727252418676, -0.015426223756715488, 0.030932970798044263, -0.011200173024820933, 7.428540188240976, 6.012619274113488]], 'compliance_tensor': [[252.1, -3.1, -8.0, 0.0, 14.8, 0.0], [-3.1, 11.2, -1.0, 0.0, 7.1, 0.0], [-8.0, -1.0, 13.6, 0.0, -3.1, 0.0], [0.0, 0.0, 0.0, 60.7, 0.0, -7.7], [14.8, 7.1, -3.1, 0.0, 649.1, 0.0], [0.0, 0.0, 0.0, -7.7, 0.0, 1397.1]], 'warnings': ['c11 and c23 are within 5% or c23 is greater than c11'], 'nsites': 8}",0,8,13,35.29,0.23,19.68
121,mp-5621,NbCu3S4,"{'Nb': 1.0, 'Cu': 3.0, 'S': 4.0}",0.122092863,4.041801788,"{'G_Reuss': 23.0, 'G_VRH': 25.0, 'G_Voigt': 27.0, 'G_Voigt_Reuss_Hill': 25.0, 'K_Reuss': 40.0, 'K_VRH': 40.0, 'K_Voigt': 40.0, 'K_Voigt_Reuss_Hill': 40.0, 'elastic_anisotropy': 0.81, 'elastic_tensor': [[93.0, 13.0, 13.0, 0.0, 0.0, 0.0], [13.0, 93.0, 13.0, 0.0, 0.0, 0.0], [13.0, 13.0, 93.0, 0.0, 0.0, 0.0], [0.0, 0.0, 0.0, 18.0, 0.0, 0.0], [0.0, 0.0, 0.0, 0.0, 18.0, 0.0], [0.0, 0.0, 0.0, 0.0, 0.0, 18.0]], 'homogeneous_poisson': 0.24, 'poisson_ratio': 0.24, 'universal_anisotropy': 0.81, 'elastic_tensor_original': [[93.24446664708671, 12.868854767767644, 12.868854767767644, 0.0, 0.0, 0.0], [12.869220357683673, 93.24346431997884, 12.869220357683673, 0.0, 0.0, 0.0], [12.869526490525285, 12.869526490525285, 93.24371792721689, 0.0, 0.0, 0.0], [3.857641672334452e-05, -0.00014528021204495803, -9.526645688127933e-06, 18.06599858781953, 0.0, 0.0], [-0.00025756928039542506, -0.0001250228371309872, -0.00023646610329285215, 0.0, 18.065804640992663, 0.0], [0.00010352994155460326, -8.59655110362348e-06, 8.479342577208264e-05, 0.0, 0.0, 18.06613245465577]], 'compliance_tensor': [[11.1, -1.3, -1.3, 0.0, 0.0, 0.0], [-1.3, 11.1, -1.3, -0.0, 0.0, 0.0], [-1.3, -1.3, 11.1, 0.0, -0.0, 0.0], [0.0, -0.0, 0.0, 55.4, -0.0, 0.0], [0.0, 0.0, -0.0, -0.0, 55.4, 0.0], [0.0, 0.0, 0.0, 0.0, 0.0, 55.4]], 'warnings': [], 'nsites': 8}",0,25,40,0.81,0.24,62
122,mp-7557,Nb5SiSn2,"{'Nb': 5.0, 'Si': 1.0, 'Sn': 2.0}",0.115469149,8.235170019,"{'G_Reuss': 82.0, 'G_VRH': 83.0, 'G_Voigt': 84.0, 'G_Voigt_Reuss_Hill': 83.0, 'K_Reuss': 162.0, 'K_VRH': 162.0, 'K_Voigt': 162.0, 'K_Voigt_Reuss_Hill': 162.0, 'elastic_anisotropy': 0.17, 'elastic_tensor': [[297.0, 93.0, 93.0, 0.0, 0.0, 0.0], [93.0, 289.0, 106.0, 0.0, 0.0, 0.0], [93.0, 106.0, 289.0, 0.0, 0.0, 0.0], [0.0, 0.0, 0.0, 95.0, 0.0, 0.0], [0.0, 0.0, 0.0, 0.0, 67.0, 0.0], [0.0, 0.0, 0.0, 0.0, 0.0, 67.0]], 'homogeneous_poisson': 0.28, 'poisson_ratio': 0.28, 'universal_anisotropy': 0.17, 'elastic_tensor_original': [[288.8884274406298, 106.1472249244761, 93.35358477824443, 0.0, 0.0, 0.0], [106.08180071933954, 289.0369836444199, 93.33910406902855, 0.0, 0.0, 0.0], [93.44511439081836, 93.44511439081836, 297.0252081865616, 0.0, 0.0, 0.0], [2.258331796882573e-05, 0.0001739798816256331, -0.00015877989196751835, 66.83764690747611, 0.0, 0.0], [0.00023335317456160736, -0.00012239991671871424, 0.00016167655666348416, 0.0, 66.83121791518369, 0.0], [0.0005054530295639783, -0.0001207765940810354, 0.00025431318049539846, 0.0, 0.0, 94.54955410690656]], 'compliance_tensor': [[4.0, -0.9, -0.9, -0.0, 0.0, -0.0], [-0.9, 4.2, -1.2, 0.0, 0.0, 0.0], [-0.9, -1.2, 4.2, 0.0, -0.0, 0.0], [-0.0, 0.0, 0.0, 10.6, 0.0, -0.0], [0.0, 0.0, -0.0, 0.0, 15.0, -0.0], [-0.0, 0.0, 0.0, -0.0, -0.0, 15.0]], 'warnings': [], 'nsites': 16}",0.968512708,83,162,0.17,0.28,212.48
123,mp-768342,SrNb2O4,"{'Sr': 1.0, 'Nb': 2.0, 'O': 4.0}",0.493796653,5.791987934,"{'G_Reuss': 60.0, 'G_VRH': 72.0, 'G_Voigt': 84.0, 'G_Voigt_Reuss_Hill': 72.0, 'K_Reuss': 147.0, 'K_VRH': 148.0, 'K_Voigt': 149.0, 'K_Voigt_Reuss_Hill': 148.0, 'elastic_anisotropy': 2.01, 'elastic_tensor': [[313.0, 52.0, 105.0, 0.0, 0.0, 0.0], [52.0, 280.0, 57.0, 0.0, 0.0, 0.0], [105.0, 57.0, 318.0, 0.0, 0.0, 0.0], [0.0, 0.0, 0.0, 55.0, 0.0, 0.0], [0.0, 0.0, 0.0, 0.0, 108.0, 0.0], [0.0, 0.0, 0.0, 0.0, 0.0, 26.0]], 'homogeneous_poisson': 0.29, 'poisson_ratio': 0.29, 'universal_anisotropy': 2.01, 'elastic_tensor_original': [[318.0283377828561, 105.60505380861215, 56.44022322559155, 0.0, 0.0, 0.0], [104.6273121724477, 313.18800797225896, 50.51927192465676, 0.0, 0.0, 0.0], [57.971176888330284, 53.36961984487474, 279.870888446873, 0.0, 0.0, 0.0], [3.866664366845434e-06, 0.000422993081773062, 0.00046756638859707096, 26.297968111766252, 0.0, 0.0], [0.0005632762841011674, -0.0004127801407066462, 0.0009349066316685002, 0.0, 54.611663385973905, 0.0], [7.643974337218319e-05, -0.007043189687570826, -0.01550952126396228, 0.0, 0.0, 107.9481628533756]], 'compliance_tensor': [[3.6, -0.4, -1.1, -0.0, 0.0, 0.0], [-0.4, 3.8, -0.5, 0.0, 0.0, 0.0], [-1.1, -0.5, 3.6, -0.0, 0.0, 0.0], [-0.0, 0.0, -0.0, 18.3, 0.0, 0.0], [0.0, 0.0, 0.0, 0.0, 9.3, 0.0], [0.0, 0.0, 0.0, 0.0, 0.0, 38.0]], 'warnings': [], 'nsites': 28}",0,72,148,2.01,0.29,185.76
124,mp-7937,NaNbS2,"{'Na': 1.0, 'Nb': 1.0, 'S': 2.0}",0.199825423,4.103609345,"{'G_Reuss': 47.0, 'G_VRH': 48.0, 'G_Voigt': 49.0, 'G_Voigt_Reuss_Hill': 48.0, 'K_Reuss': 75.0, 'K_VRH': 75.0, 'K_Voigt': 76.0, 'K_Voigt_Reuss_Hill': 75.0, 'elastic_anisotropy': 0.2, 'elastic_tensor': [[159.0, 47.0, 34.0, 0.0, 0.0, 0.0], [47.0, 159.0, 34.0, 0.0, 0.0, 0.0], [34.0, 34.0, 135.0, 0.0, 0.0, 0.0], [0.0, 0.0, 0.0, 38.0, 0.0, 0.0], [0.0, 0.0, 0.0, 0.0, 38.0, 0.0], [0.0, 0.0, 0.0, 0.0, 0.0, 56.0]], 'homogeneous_poisson': 0.24, 'poisson_ratio': 0.24, 'universal_anisotropy': 0.2, 'elastic_tensor_original': [[159.5344608517328, 45.49184393407701, 34.535790507645764, 0.0, 0.0, 0.0], [45.75801280644093, 159.57825368856945, 34.42383193725325, 0.0, 0.0, 0.0], [34.49572922732187, 34.495700631634676, 134.68939204410177, 0.0, 0.0, 0.0], [8.591625269474864e-05, -0.00013217285212232502, -0.00012854318357339038, 37.58645392534654, 0.0, 0.0], [0.00011511680570504069, 0.00018637692082317477, 0.0003474732895724631, 0.0, 38.63568359177022, 0.0], [5.9406795827832386e-05, -8.696752692267849e-05, -0.0003051748694715927, 0.0, 0.0, 54.93855797280587]], 'compliance_tensor': [[7.1, -1.8, -1.4, -0.0, -0.0, -0.0], [-1.8, 7.1, -1.4, -0.0, -0.0, -0.0], [-1.4, -1.4, 8.1, -0.0, 0.0, 0.0], [-0.0, -0.0, -0.0, 26.2, -0.0, -0.0], [-0.0, -0.0, 0.0, -0.0, 26.2, -0.0], [-0.0, -0.0, 0.0, -0.0, -0.0, 17.9]], 'warnings': [], 'nsites': 8}",0,48,75,0.2,0.24,119.04
125,mp-7939,NaNbSe2,"{'Na': 1.0, 'Nb': 1.0, 'Se': 2.0}",0.210178484,5.440617507,"{'G_Reuss': 38.0, 'G_VRH': 38.0, 'G_Voigt': 39.0, 'G_Voigt_Reuss_Hill': 38.0, 'K_Reuss': 60.0, 'K_VRH': 61.0, 'K_Voigt': 61.0, 'K_Voigt_Reuss_Hill': 61.0, 'elastic_anisotropy': 0.13, 'elastic_tensor': [[124.0, 35.0, 31.0, 0.0, 0.0, 0.0], [35.0, 124.0, 31.0, 0.0, 0.0, 0.0], [31.0, 31.0, 107.0, 0.0, 0.0, 0.0], [0.0, 0.0, 0.0, 32.0, 0.0, 0.0], [0.0, 0.0, 0.0, 0.0, 32.0, 0.0], [0.0, 0.0, 0.0, 0.0, 0.0, 44.0]], 'homogeneous_poisson': 0.24, 'poisson_ratio': 0.24, 'universal_anisotropy': 0.13, 'elastic_tensor_original': [[124.66226698341862, 35.24078708722121, 29.704070139209488, 0.0, 0.0, 0.0], [34.79401805244378, 124.49789024837041, 29.711239477360994, 0.0, 0.0, 0.0], [31.302363433088832, 31.302379752860517, 106.82019853675794, 0.0, 0.0, 0.0], [-0.0007632130674556863, 0.0007210962833113793, -0.00045948993619560194, 31.85034764645715, 0.0, 0.0], [0.0035114977734644615, 0.004965654663253795, 0.00248668231454425, 0.0, 31.88929777468299, 0.0], [-1.3406568637887057e-05, 1.647323113355377e-05, -0.0001121132629086128, 0.0, 0.0, 43.87302944886838]], 'compliance_tensor': [[9.2, -2.1, -2.0, -0.0, 0.0, 0.0], [-2.1, 9.2, -2.0, 0.0, 0.0, 0.0], [-2.0, -2.0, 10.5, -0.0, 0.0, -0.0], [-0.0, 0.0, -0.0, 31.4, 0.0, 0.0], [0.0, 0.0, 0.0, 0.0, 31.4, -0.0], [0.0, 0.0, -0.0, 0.0, -0.0, 22.6]], 'warnings': [], 'nsites': 8}",0,38,61,0.13,0.24,94.24
126,mp-864639,Ta2NbOs,"{'Ta': 2.0, 'Nb': 1.0, 'Os': 1.0}",0.120901432,15.7817596,"{'G_Reuss': 103.0, 'G_VRH': 104.0, 'G_Voigt': 105.0, 'G_Voigt_Reuss_Hill': 104.0, 'K_Reuss': 244.0, 'K_VRH': 244.0, 'K_Voigt': 244.0, 'K_Voigt_Reuss_Hill': 244.0, 'elastic_anisotropy': 0.1, 'elastic_tensor': [[409.0, 162.0, 162.0, 0.0, 0.0, 0.0], [162.0, 409.0, 162.0, 0.0, 0.0, 0.0], [162.0, 162.0, 409.0, 0.0, 0.0, 0.0], [0.0, 0.0, 0.0, 93.0, 0.0, 0.0], [0.0, 0.0, 0.0, 0.0, 93.0, 0.0], [0.0, 0.0, 0.0, 0.0, 0.0, 93.0]], 'homogeneous_poisson': 0.31, 'poisson_ratio': 0.31, 'universal_anisotropy': 0.1, 'elastic_tensor_original': [[409.11363286965087, 161.8852471942328, 161.8852471942328, 0.0, 0.0, 0.0], [161.87813807160023, 409.1073654677053, 161.87813807160023, 0.0, 0.0, 0.0], [161.8763756723959, 161.8763756723959, 409.10408253806906, 0.0, 0.0, 0.0], [-0.0007265635463351009, -0.00020290024712341388, -0.0005477633197368167, 93.29104806352912, 0.0, 0.0], [-7.732385263938426e-05, -0.0001852364721183997, -0.00021594678055193725, 0.0, 93.29103684351871, 0.0], [0.00035602680791466584, 0.0003165035584913182, 0.00021759366099522449, 0.0, 0.0, 93.29120723956186]], 'compliance_tensor': [[3.2, -0.9, -0.9, -0.0, -0.0, 0.0], [-0.9, 3.2, -0.9, 0.0, -0.0, -0.0], [-0.9, -0.9, 3.2, -0.0, 0.0, -0.0], [-0.0, 0.0, -0.0, 10.7, -0.0, -0.0], [-0.0, -0.0, 0.0, -0.0, 10.7, -0.0], [0.0, -0.0, -0.0, -0.0, -0.0, 10.7]], 'warnings': [], 'nsites': 4}",0,104,244,0.1,0.31,272.48