,mp_id,Formula,Composition,IPF,Density,Elastic_Tensor,E_above_Hull,G_VRH,K_VRH,Elastic_Anisotropy,poisson_ratio,Y_Modulus
13,mp-1359,NbIr,"{'Nb': 1.0, 'Ir': 1.0}",0.129094221,14.60515987,"{'G_Reuss': 97.0, 'G_VRH': 105.0, 'G_Voigt': 113.0, 'G_Voigt_Reuss_Hill': 105.0, 'K_Reuss': 258.0, 'K_VRH': 259.0, 'K_Voigt': 259.0, 'K_Voigt_Reuss_Hill': 259.0, 'elastic_anisotropy': 0.82, 'elastic_tensor': [[423.0, 142.0, 192.0, 0.0, 0.0, 0.0], [142.0, 423.0, 192.0, 0.0, 0.0, 0.0], [192.0, 192.0, 437.0, 0.0, 0.0, 0.0], [0.0, 0.0, 0.0, 132.0, 0.0, 0.0], [0.0, 0.0, 0.0, 0.0, 132.0, 0.0], [0.0, 0.0, 0.0, 0.0, 0.0, 50.0]], 'homogeneous_poisson': 0.32, 'poisson_ratio': 0.32, 'universal_anisotropy': 0.82, 'elastic_tensor_original': [[422.54252957681723, 142.39135633896498, 191.84636130817896, 0.0, 0.0, 0.0], [142.39143619747148, 422.5424488119968, 191.84663531246886, 0.0, 0.0, 0.0], [191.97096519453098, 191.97096519453098, 436.8664075704602, 0.0, 0.0, 0.0], [1.583329157428094e-05, -1.277663296759447e-05, 6.764982156826142e-05, 132.15936428452807, 0.0, 0.0], [-1.4286628983902204e-05, -4.575654597680934e-05, 4.463654893498003e-05, 0.0, 132.1592991047, 0.0], [9.404976612154227e-05, 5.493986337829411e-05, -7.546314567426778e-05, 0.0, 0.0, 49.66000716482931]], 'compliance_tensor': [[3.0, -0.5, -1.1, 0.0, 0.0, 0.0], [-0.5, 3.0, -1.1, 0.0, -0.0, 0.0], [-1.1, -1.1, 3.3, 0.0, -0.0, -0.0], [0.0, 0.0, 0.0, 7.6, 0.0, 0.0], [0.0, -0.0, -0.0, 0.0, 7.6, 0.0], [0.0, 0.0, -0.0, 0.0, 0.0, 20.1]], 'warnings': [], 'nsites': 2}",0,105,259,0.82,0.32,277.2
14,mp-13686,Nb5Si3,"{'Nb': 5.0, 'Si': 3.0}",0.103422994,6.967600826,"{'G_Reuss': 123.0, 'G_VRH': 123.0, 'G_Voigt': 124.0, 'G_Voigt_Reuss_Hill': 123.0, 'K_Reuss': 194.0, 'K_VRH': 194.0, 'K_Voigt': 195.0, 'K_Voigt_Reuss_Hill': 194.0, 'elastic_anisotropy': 0.04, 'elastic_tensor': [[374.0, 99.0, 120.0, 0.0, 0.0, 0.0], [99.0, 374.0, 120.0, 0.0, 0.0, 0.0], [120.0, 120.0, 326.0, 0.0, 0.0, 0.0], [0.0, 0.0, 0.0, 128.0, 0.0, 0.0], [0.0, 0.0, 0.0, 0.0, 128.0, 0.0], [0.0, 0.0, 0.0, 0.0, 0.0, 118.0]], 'homogeneous_poisson': 0.24, 'poisson_ratio': 0.24, 'universal_anisotropy': 0.04, 'elastic_tensor_original': [[373.5841689642889, 98.97853552345147, 119.62194894511741, 0.0, 0.0, 0.0], [98.97784231353351, 373.5830638713401, 119.62155912958765, 0.0, 0.0, 0.0], [120.28572429605177, 120.28572429605177, 325.9914699349437, 0.0, 0.0, 0.0], [2.2413355086772544e-05, 7.65034075826531e-05, -0.00014649680884357475, 128.2274252534044, 0.0, 0.0], [-3.9800038625582445e-06, 2.1300020672303363e-05, 2.9866695657889563e-06, 0.0, 128.22750760015103, 0.0], [1.0833342647295604e-05, 1.4220012224772999e-05, 8.943341022135881e-06, 0.0, 0.0, 117.93345653109472]], 'compliance_tensor': [[3.1, -0.5, -1.0, 0.0, 0.0, 0.0], [-0.5, 3.1, -1.0, -0.0, 0.0, 0.0], [-1.0, -1.0, 3.8, -0.0, 0.0, 0.0], [0.0, -0.0, -0.0, 7.8, 0.0, 0.0], [0.0, 0.0, 0.0, 0.0, 7.8, 0.0], [0.0, 0.0, 0.0, 0.0, 0.0, 8.5]], 'warnings': [], 'nsites': 16}",0,123,194,0.04,0.24,305.04
15,mp-13967,Nb5(CuSi)4,"{'Nb': 5.0, 'Cu': 4.0, 'Si': 4.0}",0.123542518,7.278267339,"{'G_Reuss': 96.0, 'G_VRH': 98.0, 'G_Voigt': 100.0, 'G_Voigt_Reuss_Hill': 98.0, 'K_Reuss': 179.0, 'K_VRH': 179.0, 'K_Voigt': 179.0, 'K_Voigt_Reuss_Hill': 179.0, 'elastic_anisotropy': 0.22, 'elastic_tensor': [[276.0, 126.0, 126.0, 0.0, 0.0, 0.0], [126.0, 284.0, 131.0, -1.0, 0.0, 0.0], [126.0, 131.0, 284.0, 1.0, 0.0, 0.0], [0.0, -1.0, 1.0, 104.0, 0.0, 0.0], [0.0, 0.0, 0.0, 0.0, 121.0, 0.0], [0.0, 0.0, 0.0, 0.0, 0.0, 121.0]], 'homogeneous_poisson': 0.27, 'poisson_ratio': 0.27, 'universal_anisotropy': 0.22, 'elastic_tensor_original': [[283.6824911755526, 131.63105522760165, 126.2231857371486, 0.0, 0.0, 2.2038992729623703], [131.0728653077782, 283.55694702589983, 125.59846120812325, 0.0, 0.0, -2.228182781191307], [125.70332282773018, 125.70332282773018, 275.9767023881629, 0.0, 0.0, -0.0007928539967066079], [0.014595369187227784, 0.045816284854645825, 0.023342054704961583, 121.24299846200992, 0.08656628563885783, -0.008408655690960443], [-0.04581628485464349, -0.014595369187227822, -0.02334205470496217, -0.012626903529306968, 121.21725719520113, -0.008420447351584644], [-0.6408154488550755, 0.6408154488550772, 0.0, 0.0, 0.0, 103.82963720538335]], 'compliance_tensor': [[5.0, -1.5, -1.5, 0.0, 0.0, 0.0], [-1.5, 4.9, -1.6, 0.0, 0.0, -0.0], [-1.5, -1.6, 4.9, -0.0, -0.0, 0.0], [0.0, 0.0, -0.0, 9.6, -0.0, -0.0], [0.0, 0.0, -0.0, -0.0, 8.2, 0.0], [0.0, -0.0, 0.0, -0.0, 0.0, 8.2]], 'warnings': [], 'nsites': 13}",0,98,179,0.22,0.27,248.92
16,mp-1451,NbNi3,"{'Nb': 1.0, 'Ni': 3.0}",0.148317158,8.950269433,"{'G_Reuss': 74.0, 'G_VRH': 77.0, 'G_Voigt': 80.0, 'G_Voigt_Reuss_Hill': 77.0, 'K_Reuss': 211.0, 'K_VRH': 211.0, 'K_Voigt': 211.0, 'K_Voigt_Reuss_Hill': 211.0, 'elastic_anisotropy': 0.4, 'elastic_tensor': [[328.0, 150.0, 149.0, 0.0, 0.0, 0.0], [150.0, 372.0, 128.0, 0.0, 0.0, 0.0], [149.0, 128.0, 344.0, 0.0, 0.0, 0.0], [0.0, 0.0, 0.0, 53.0, 0.0, 0.0], [0.0, 0.0, 0.0, 0.0, 61.0, 0.0], [0.0, 0.0, 0.0, 0.0, 0.0, 81.0]], 'homogeneous_poisson': 0.34, 'poisson_ratio': 0.34, 'universal_anisotropy': 0.4, 'elastic_tensor_original': [[344.4833533930192, 148.95522079977647, 121.15239924718553, 0.0, 0.0, 0.0], [149.19859484183675, 327.7128631212216, 144.22186393957358, 0.0, 0.0, 0.0], [134.4294657623099, 156.02079829657097, 371.998092080934, 0.0, 0.0, 0.0], [0.0986203783901419, 0.10181438082773572, 0.0974209715194816, 80.56175655095274, 0.0, 0.0], [0.003802627819848947, 0.0038601646412492288, 0.003841158126403113, 0.0, 52.59677208602466, 0.0], [-0.15322334794759201, -0.009484475872800274, -0.08749318156649817, 0.0, 0.0, 61.205211705046075]], 'compliance_tensor': [[4.2, -1.2, -1.4, 0.0, 0.0, 0.0], [-1.2, 3.4, -0.7, 0.0, 0.0, 0.0], [-1.4, -0.7, 3.8, 0.0, 0.0, 0.0], [0.0, 0.0, 0.0, 19.0, 0.0, 0.0], [0.0, 0.0, 0.0, 0.0, 16.3, 0.0], [0.0, 0.0, 0.0, 0.0, 0.0, 12.4]], 'warnings': [], 'nsites': 8}",0,77,211,0.4,0.34,206.36
17,mp-1458,Nb3Ir,"{'Nb': 3.0, 'Ir': 1.0}",0.126407635,11.22804606,"{'G_Reuss': 98.0, 'G_VRH': 104.0, 'G_Voigt': 109.0, 'G_Voigt_Reuss_Hill': 104.0, 'K_Reuss': 223.0, 'K_VRH': 223.0, 'K_Voigt': 223.0, 'K_Voigt_Reuss_Hill': 223.0, 'elastic_anisotropy': 0.57, 'elastic_tensor': [[429.0, 120.0, 120.0, 0.0, 0.0, 0.0], [120.0, 429.0, 120.0, 0.0, 0.0, 0.0], [120.0, 120.0, 429.0, 0.0, 0.0, 0.0], [0.0, 0.0, 0.0, 79.0, 0.0, 0.0], [0.0, 0.0, 0.0, 0.0, 79.0, 0.0], [0.0, 0.0, 0.0, 0.0, 0.0, 79.0]], 'homogeneous_poisson': 0.3, 'poisson_ratio': 0.3, 'universal_anisotropy': 0.57, 'elastic_tensor_original': [[429.25407040938495, 119.5421832143716, 119.5421832143716, 0.0, 0.0, 0.0], [119.54270301327755, 429.25535173427187, 119.54270301327755, 0.0, 0.0, 0.0], [119.5392739151651, 119.5392739151651, 429.25086858926295, 0.0, 0.0, 0.0], [0.001312321421199264, -0.000972942525195297, -0.0001424467764435817, 78.69150844214174, 0.0, 0.0], [-0.0037154960382837195, 0.0021450856349618146, -0.0026034317027767225, 0.0, 78.6918298350395, 0.0], [-0.0008750450789660634, -0.0009226889926919374, 0.001115823768491749, 0.0, 0.0, 78.69154484165043]], 'compliance_tensor': [[2.7, -0.6, -0.6, -0.0, 0.0, -0.0], [-0.6, 2.7, -0.6, -0.0, -0.0, 0.0], [-0.6, -0.6, 2.7, 0.0, -0.0, -0.0], [-0.0, -0.0, 0.0, 12.7, -0.0, -0.0], [0.0, -0.0, -0.0, -0.0, 12.7, -0.0], [-0.0, 0.0, -0.0, -0.0, -0.0, 12.7]], 'warnings': [], 'nsites': 8}",0,104,223,0.57,0.3,270.4
18,mp-1545,Nb3Rh,"{'Nb': 3.0, 'Rh': 1.0}",0.124184961,9.086567728,"{'G_Reuss': 83.0, 'G_VRH': 89.0, 'G_Voigt': 95.0, 'G_Voigt_Reuss_Hill': 89.0, 'K_Reuss': 204.0, 'K_VRH': 204.0, 'K_Voigt': 204.0, 'K_Voigt_Reuss_Hill': 204.0, 'elastic_anisotropy': 0.74, 'elastic_tensor': [[391.0, 110.0, 110.0, 0.0, 0.0, 0.0], [110.0, 391.0, 110.0, 0.0, 0.0, 0.0], [110.0, 110.0, 391.0, 0.0, 0.0, 0.0], [0.0, 0.0, 0.0, 65.0, 0.0, 0.0], [0.0, 0.0, 0.0, 0.0, 65.0, 0.0], [0.0, 0.0, 0.0, 0.0, 0.0, 65.0]], 'homogeneous_poisson': 0.31, 'poisson_ratio': 0.31, 'universal_anisotropy': 0.74, 'elastic_tensor_original': [[390.6098950863027, 110.21556861452454, 110.21556861452454, 0.0, 0.0, 0.0], [110.1624504393681, 390.5487794421641, 110.1624504393681, 0.0, 0.0, 0.0], [110.3880668141453, 110.3880668141453, 390.7862609377091, 0.0, 0.0, 0.0], [0.004003011496345619, 0.004702257842126626, 0.004729654496221147, 65.15807164886039, 0.0, 0.0], [0.01034492191936602, 0.010157852005212917, 0.010693728425965046, 0.0, 65.15791861226394, 0.0], [-0.00731691664225537, -0.006931253485903554, -0.006181663829891413, 0.0, 0.0, 65.1583402387371]], 'compliance_tensor': [[2.9, -0.6, -0.6, 0.0, -0.0, -0.0], [-0.6, 2.9, -0.6, -0.0, 0.0, 0.0], [-0.6, -0.6, 2.9, -0.0, -0.0, 0.0], [0.0, -0.0, -0.0, 15.3, -0.0, -0.0], [-0.0, 0.0, -0.0, -0.0, 15.3, -0.0], [-0.0, 0.0, 0.0, -0.0, -0.0, 15.3]], 'warnings': [], 'nsites': 8}",0,89,204,0.74,0.31,233.18
19,mp-1606,NbAu2,"{'Nb': 1.0, 'Au': 2.0}",0.236126868,15.18308488,"{'G_Reuss': 57.0, 'G_VRH': 64.0, 'G_Voigt': 70.0, 'G_Voigt_Reuss_Hill': 64.0, 'K_Reuss': 175.0, 'K_VRH': 175.0, 'K_Voigt': 175.0, 'K_Voigt_Reuss_Hill': 175.0, 'elastic_anisotropy': 1.15, 'elastic_tensor': [[285.0, 146.0, 88.0, 0.0, 0.0, 0.0], [146.0, 285.0, 88.0, 0.0, 0.0, 0.0], [88.0, 88.0, 363.0, 0.0, 0.0, 0.0], [0.0, 0.0, 0.0, 39.0, 0.0, 0.0], [0.0, 0.0, 0.0, 0.0, 39.0, 0.0], [0.0, 0.0, 0.0, 0.0, 0.0, 70.0]], 'homogeneous_poisson': 0.34, 'poisson_ratio': 0.34, 'universal_anisotropy': 1.15, 'elastic_tensor_original': [[285.02576853927263, 146.41218598383333, 88.33178565487046, 0.0, 0.0, -5.597004263172077e-06], [144.59722791594567, 285.4557160983081, 88.23623916153686, 0.0, 0.0, 0.0], [87.60922537480356, 87.60922333463046, 362.504957816297, 0.0, 0.0, 0.0], [-0.00134767895498462, 0.0009608521099129271, -0.0001079500738889424, 39.04578660441917, 0.0, 0.0], [-0.00012401792153937958, -0.0002717587125604381, -0.00015583009233672218, 2.6666642736895862e-08, 38.91257819678832, 0.0], [-0.10043169304884272, 0.23264097450128007, -0.01879371714343556, 0.0, 0.0, 69.20019914557422]], 'compliance_tensor': [[4.9, -2.3, -0.6, -0.0, 0.0, -0.0], [-2.3, 4.9, -0.6, 0.0, -0.0, -0.0], [-0.6, -0.6, 3.1, 0.0, -0.0, 0.0], [0.0, -0.0, 0.0, 25.7, -0.0, 0.0], [0.0, -0.0, 0.0, -0.0, 25.7, 0.0], [-0.0, -0.0, 0.0, 0.0, 0.0, 14.4]], 'warnings': [], 'nsites': 3}",0,64,175,1.15,0.34,171.52
20,mp-1842,NbAl3,"{'Nb': 1.0, 'Al': 3.0}",0.096283695,4.501843442,"{'G_Reuss': 103.0, 'G_VRH': 105.0, 'G_Voigt': 107.0, 'G_Voigt_Reuss_Hill': 105.0, 'K_Reuss': 127.0, 'K_VRH': 127.0, 'K_Voigt': 127.0, 'K_Voigt_Reuss_Hill': 127.0, 'elastic_anisotropy': 0.17, 'elastic_tensor': [[248.0, 94.0, 47.0, 0.0, 0.0, 0.0], [94.0, 248.0, 47.0, 0.0, 0.0, 0.0], [47.0, 47.0, 271.0, 0.0, 0.0, 0.0], [0.0, 0.0, 0.0, 103.0, 0.0, 0.0], [0.0, 0.0, 0.0, 0.0, 103.0, 0.0], [0.0, 0.0, 0.0, 0.0, 0.0, 134.0]], 'homogeneous_poisson': 0.18, 'poisson_ratio': 0.18, 'universal_anisotropy': 0.17, 'elastic_tensor_original': [[248.0989336701849, 93.65393859339746, 47.75002822558006, 0.0, 0.0, 0.0], [93.65331852899224, 248.09939896253152, 47.75022094951214, 0.0, 0.0, 0.0], [46.54088642454044, 46.54088642454044, 270.7600724865359, 0.0, 0.0, 0.0], [-0.0003492365987035887, -0.00023414657552469446, -0.00032434660471675474, 103.03460286806302, 0.0, 0.0], [0.0001349069969135917, 4.850021944448264e-05, 7.653018917700222e-05, 0.0, 103.03453556445847, 0.0], [0.16297943948618263, 0.05248944323304819, 0.20898972214146758, -0.008509297865423619, -0.012887805619544048, 134.39168493250443]], 'compliance_tensor': [[4.8, -1.7, -0.5, -0.0, -0.0, 0.0], [-1.7, 4.8, -0.5, 0.0, 0.0, -0.0], [-0.5, -0.5, 3.9, 0.0, 0.0, 0.0], [-0.0, 0.0, 0.0, 9.7, 0.0, 0.0], [-0.0, 0.0, 0.0, 0.0, 9.7, -0.0], [0.0, -0.0, 0.0, 0.0, -0.0, 7.4]], 'warnings': [], 'nsites': 4}",0,105,127,0.17,0.18,247.8
21,mp-18427,Nb2Al,"{'Nb': 2.0, 'Al': 1.0}",0.113506464,6.789453727,"{'G_Reuss': 82.0, 'G_VRH': 82.0, 'G_Voigt': 83.0, 'G_Voigt_Reuss_Hill': 82.0, 'K_Reuss': 160.0, 'K_VRH': 161.0, 'K_Voigt': 161.0, 'K_Voigt_Reuss_Hill': 161.0, 'elastic_anisotropy': 0.07, 'elastic_tensor': [[297.0, 99.0, 99.0, 0.0, 0.0, 0.0], [99.0, 282.0, 94.0, 0.0, 0.0, 0.0], [99.0, 94.0, 282.0, 0.0, 0.0, 0.0], [0.0, 0.0, 0.0, 81.0, 0.0, 0.0], [0.0, 0.0, 0.0, 0.0, 73.0, 0.0], [0.0, 0.0, 0.0, 0.0, 0.0, 73.0]], 'homogeneous_poisson': 0.28, 'poisson_ratio': 0.28, 'universal_anisotropy': 0.07, 'elastic_tensor_original': [[281.70656409234215, 93.96454836280662, 99.65147028749584, 0.0, 0.0, 0.0], [93.96589363464531, 281.7069236097817, 99.65201847425003, 0.0, 0.0, 0.0], [99.05988751888259, 99.05988751888259, 296.6555753856165, 0.0, 0.0, 0.0], [-0.0003528901122475886, -0.0005932301886954006, 4.445001413892633e-05, 72.51031941756482, 0.0, 0.0], [-0.0002927867597968261, 0.00019238672786157132, 0.00017061338760255011, 0.0, 72.51068395768078, 0.0], [5.666668059738616e-08, 5.930668121347972e-05, -0.00026824006579155834, 0.0, 0.0, 81.10926870056188]], 'compliance_tensor': [[4.1, -1.1, -1.1, 0.0, 0.0, -0.0], [-1.1, 4.3, -1.0, -0.0, -0.0, -0.0], [-1.1, -1.0, 4.3, -0.0, 0.0, 0.0], [0.0, -0.0, -0.0, 12.3, 0.0, -0.0], [0.0, -0.0, 0.0, 0.0, 13.8, 0.0], [-0.0, -0.0, 0.0, -0.0, 0.0, 13.8]], 'warnings': [], 'nsites': 30}",0,82,161,0.07,0.28,209.92
22,mp-1932,Nb3Os,"{'Nb': 3.0, 'Os': 1.0}",0.118099291,11.20767839,"{'G_Reuss': 85.0, 'G_VRH': 91.0, 'G_Voigt': 97.0, 'G_Voigt_Reuss_Hill': 91.0, 'K_Reuss': 223.0, 'K_VRH': 223.0, 'K_Voigt': 223.0, 'K_Voigt_Reuss_Hill': 223.0, 'elastic_anisotropy': 0.71, 'elastic_tensor': [[413.0, 128.0, 128.0, 0.0, 0.0, 0.0], [128.0, 413.0, 128.0, 0.0, 0.0, 0.0], [128.0, 128.0, 413.0, 0.0, 0.0, 0.0], [0.0, 0.0, 0.0, 67.0, 0.0, 0.0], [0.0, 0.0, 0.0, 0.0, 67.0, 0.0], [0.0, 0.0, 0.0, 0.0, 0.0, 67.0]], 'homogeneous_poisson': 0.32, 'poisson_ratio': 0.32, 'universal_anisotropy': 0.71, 'elastic_tensor_original': [[413.47414185051434, 128.27560184613984, 128.27560184613984, 0.0, 0.0, 0.0], [128.27595482449362, 413.47406883369865, 128.27595482449362, 0.0, 0.0, 0.0], [128.27287501085326, 128.27287501085326, 413.4724810812664, 0.0, 0.0, 0.0], [-0.003246429419981122, -0.001536717969965924, -0.001981708347364835, 67.14918415961534, 0.0, 0.0], [-0.008439680491075381, -0.011911943435922289, -0.0016265213794617408, 0.0, 67.17070343119929, 0.0], [-0.004963277542717613, 0.002944932497615031, -0.006064718476856108, 0.0, 0.0, 67.17186336218303]], 'compliance_tensor': [[2.8, -0.7, -0.7, -0.0, -0.0, 0.0], [-0.7, 2.8, -0.7, 0.0, -0.0, -0.0], [-0.7, -0.7, 2.8, -0.0, 0.0, 0.0], [-0.0, 0.0, -0.0, 14.9, -0.0, -0.0], [-0.0, -0.0, 0.0, -0.0, 14.9, -0.0], [0.0, -0.0, 0.0, -0.0, -0.0, 14.9]], 'warnings': [], 'nsites': 8}",0,91,223,0.71,0.32,240.24
23,mp-1963,NbRh,"{'Nb': 1.0, 'Rh': 1.0}",0.125687509,10.11175654,"{'G_Reuss': 69.0, 'G_VRH': 79.0, 'G_Voigt': 89.0, 'G_Voigt_Reuss_Hill': 79.0, 'K_Reuss': 219.0, 'K_VRH': 220.0, 'K_Voigt': 220.0, 'K_Voigt_Reuss_Hill': 220.0, 'elastic_anisotropy': 1.43, 'elastic_tensor': [[357.0, 123.0, 166.0, 0.0, 0.0, 0.0], [123.0, 357.0, 166.0, 0.0, 0.0, 0.0], [166.0, 166.0, 357.0, 0.0, 0.0, 0.0], [0.0, 0.0, 0.0, 105.0, 0.0, 0.0], [0.0, 0.0, 0.0, 0.0, 105.0, 0.0], [0.0, 0.0, 0.0, 0.0, 0.0, 30.0]], 'homogeneous_poisson': 0.34, 'poisson_ratio': 0.34, 'universal_anisotropy': 1.43, 'elastic_tensor_original': [[357.3975362294823, 122.8173881448638, 165.79798583855543, 0.0, 0.0, 0.0], [122.81632547535783, 357.3944900080159, 165.79471548959387, 0.0, 0.0, 0.0], [166.27962117543262, 166.27962117543262, 357.03682793645464, 0.0, 0.0, 0.0], [0.0004889096375012376, 0.0004274829358435092, 0.0005121662980819848, 105.03466664732245, 0.0, 0.0], [-0.0003233302718783755, -0.00020773990232376301, -0.00022362941015751934, 0.0, 105.03479890742192, 0.0], [0.00040142180858131394, 0.0004179187957791021, 0.0002663189910589577, 0.0, 0.0, 30.199113464231036]], 'compliance_tensor': [[3.7, -0.6, -1.4, -0.0, 0.0, 0.0], [-0.6, 3.7, -1.4, -0.0, -0.0, 0.0], [-1.4, -1.4, 4.1, 0.0, -0.0, 0.0], [-0.0, -0.0, 0.0, 9.5, -0.0, 0.0], [0.0, -0.0, -0.0, -0.0, 9.5, 0.0], [0.0, 0.0, 0.0, 0.0, 0.0, 33.1]], 'warnings': [], 'nsites': 2}",0,79,220,1.43,0.34,211.72
24,mp-1969,NbSb2,"{'Nb': 1.0, 'Sb': 2.0}",0.102260873,8.046465944,"{'G_Reuss': 67.0, 'G_VRH': 69.0, 'G_Voigt': 72.0, 'G_Voigt_Reuss_Hill': 69.0, 'K_Reuss': 96.0, 'K_VRH': 97.0, 'K_Voigt': 98.0, 'K_Voigt_Reuss_Hill': 97.0, 'elastic_anisotropy': 0.4, 'elastic_tensor': [[210.0, 67.0, 48.0, 0.0, -21.0, 0.0], [67.0, 152.0, 47.0, 0.0, 10.0, 0.0], [48.0, 47.0, 195.0, 0.0, -0.0, 0.0], [0.0, 0.0, 0.0, 78.0, 0.0, 19.0], [-21.0, 10.0, -0.0, 0.0, 73.0, 0.0], [0.0, 0.0, 0.0, 19.0, 0.0, 76.0]], 'homogeneous_poisson': 0.21, 'poisson_ratio': 0.21, 'universal_anisotropy': 0.4, 'elastic_tensor_original': [[198.6456972731596, 42.98500520780391, 59.484791856111514, 0.0, -6.339737430690002, 0.0], [42.94688069650778, 151.97824081008397, 71.95144861203124, 0.0, 1.2682244068245252, 0.0], [60.28493851070315, 70.06409468184049, 182.0349802197767, 0.0, -14.946195422053947, 0.0], [-0.012753898790593486, -0.033499049826988606, -0.012451431754612203, 88.54350280852583, 0.007868141758989306, 15.07541348585913], [-6.575055488459285, 1.172790117543065, -14.888362754683582, 0.0, 85.20015207559506, 0.0], [0.00016881999735580535, 8.029329625990041e-05, 0.00018765331510145846, 15.179188044439428, 0.000164660003663805, 65.83665517157758]], 'compliance_tensor': [[6.0, -2.5, -0.8, 0.0, 2.1, 0.0], [-2.5, 8.2, -1.4, 0.0, -1.9, 0.0], [-0.8, -1.4, 5.7, 0.0, -0.0, 0.0], [0.0, 0.0, 0.0, 13.6, 0.0, -3.4], [2.1, -1.9, -0.0, 0.0, 14.6, 0.0], [0.0, 0.0, 0.0, -3.4, 0.0, 14.0]], 'warnings': [], 'nsites': 6}",0,69,97,0.4,0.21,166.98
25,mp-1973,NbGa3,"{'Nb': 1.0, 'Ga': 3.0}",0.121048224,7.758692646,"{'G_Reuss': 85.0, 'G_VRH': 87.0, 'G_Voigt': 88.0, 'G_Voigt_Reuss_Hill': 87.0, 'K_Reuss': 122.0, 'K_VRH': 122.0, 'K_Voigt': 123.0, 'K_Voigt_Reuss_Hill': 122.0, 'elastic_anisotropy': 0.19, 'elastic_tensor': [[237.0, 94.0, 49.0, 0.0, 0.0, 0.0], [94.0, 237.0, 49.0, 0.0, 0.0, 0.0], [49.0, 49.0, 245.0, 0.0, 0.0, 0.0], [0.0, 0.0, 0.0, 76.0, 0.0, 0.0], [0.0, 0.0, 0.0, 0.0, 76.0, 0.0], [0.0, 0.0, 0.0, 0.0, 0.0, 114.0]], 'homogeneous_poisson': 0.21, 'poisson_ratio': 0.21, 'universal_anisotropy': 0.19, 'elastic_tensor_original': [[237.21530049813393, 93.67721698218604, 49.10679990494056, 0.0, 0.0, 0.0], [93.67488743732218, 237.21127913464284, 49.1045828065456, 0.0, 0.0, 0.0], [48.922173488052216, 48.922173488052216, 245.07966402178306, 0.0, 0.0, 0.0], [-0.0009151965246945457, -0.0008309130815569129, -0.0007783426148710142, 76.11881470682192, 0.0, 0.0], [0.0006044690451286561, 0.00032506871004956496, 0.0005440427193077875, 0.0, 76.11905043402835, 0.0], [0.0008001395949534318, 0.0011954099631100426, 0.0008212630451238309, 0.0, 0.0, 113.55645053303336]], 'compliance_tensor': [[5.1, -1.9, -0.6, -0.0, -0.0, 0.0], [-1.9, 5.1, -0.6, 0.0, -0.0, -0.0], [-0.6, -0.6, 4.3, -0.0, -0.0, -0.0], [-0.0, 0.0, -0.0, 13.1, 0.0, -0.0], [-0.0, -0.0, -0.0, 0.0, 13.1, -0.0], [0.0, -0.0, -0.0, -0.0, -0.0, 8.8]], 'warnings': [], 'nsites': 4}",0,87,122,0.19,0.21,210.54