,mp_id,Formula,Composition,IPF,Density,Elastic_Tensor,E_above_Hull,G_VRH,K_VRH,Elastic_Anisotropy,poisson_ratio,Y_Modulus
51,mp-640041,NbZn16,"{'Nb': 1.0, 'Zn': 16.0}",0.185013342,7.295698646,"{'G_Reuss': 31.0, 'G_VRH': 33.0, 'G_Voigt': 34.0, 'G_Voigt_Reuss_Hill': 33.0, 'K_Reuss': 84.0, 'K_VRH': 85.0, 'K_Voigt': 85.0, 'K_Voigt_Reuss_Hill': 85.0, 'elastic_anisotropy': 0.63, 'elastic_tensor': [[107.0, 59.0, 73.0, 0.0, 0.0, 0.0], [59.0, 139.0, 71.0, 0.0, 0.0, 0.0], [73.0, 71.0, 117.0, 0.0, 0.0, 0.0], [0.0, 0.0, 0.0, 49.0, 0.0, 0.0], [0.0, 0.0, 0.0, 0.0, 26.0, 0.0], [0.0, 0.0, 0.0, 0.0, 0.0, 43.0]], 'homogeneous_poisson': 0.33, 'poisson_ratio': 0.33, 'universal_anisotropy': 0.63, 'elastic_tensor_original': [[106.63534598859253, 72.9548513287773, 58.602691492790456, 0.0, 0.0, 0.0], [72.42607672422561, 117.15828375294703, 71.88479634142418, 0.0, 0.0, 0.0], [59.1054970142921, 70.75453978123372, 139.4722599613202, 0.0, 0.0, 0.0], [-0.017492886174068127, -0.022723531353543127, -0.00244607419666915, 49.021713708751, 0.0, 0.0], [0.0001952834403634929, -0.009914403304021031, -0.002743441852201011, 0.0, 43.20442753975666, 0.0], [0.01679853974298021, 0.02077709542586411, 0.009567366966866827, 0.0, 0.0, 26.312604531784203]], 'compliance_tensor': [[16.9, -2.6, -8.9, 0.0, 0.0, 0.0], [-2.6, 10.8, -5.0, 0.0, -0.0, 0.0], [-8.9, -5.0, 17.1, 0.0, 0.0, 0.0], [0.0, 0.0, 0.0, 20.4, 0.0, 0.0], [0.0, -0.0, 0.0, 0.0, 38.0, 0.0], [0.0, 0.0, 0.0, 0.0, 0.0, 23.1]], 'warnings': [], 'nsites': 34}",0,33,85,0.63,0.33,87.78
52,mp-669692,NbPd3,"{'Nb': 1.0, 'Pd': 3.0}",0.15704971,10.82978148,"{'G_Reuss': 78.0, 'G_VRH': 79.0, 'G_Voigt': 81.0, 'G_Voigt_Reuss_Hill': 79.0, 'K_Reuss': 196.0, 'K_VRH': 196.0, 'K_Voigt': 196.0, 'K_Voigt_Reuss_Hill': 196.0, 'elastic_anisotropy': 0.19, 'elastic_tensor': [[330.0, 122.0, 140.0, 0.0, 0.0, 0.0], [122.0, 333.0, 131.0, 0.0, 0.0, 0.0], [140.0, 131.0, 316.0, 0.0, 0.0, 0.0], [0.0, 0.0, 0.0, 73.0, 0.0, 0.0], [0.0, 0.0, 0.0, 0.0, 75.0, 0.0], [0.0, 0.0, 0.0, 0.0, 0.0, 60.0]], 'homogeneous_poisson': 0.32, 'poisson_ratio': 0.32, 'universal_anisotropy': 0.19, 'elastic_tensor_original': [[315.549094185697, 140.10881196731157, 131.57336653651896, 0.0, 0.0, 0.0], [139.5233515916666, 330.30242818674645, 123.19313600157818, 0.0, 0.0, 0.0], [131.3209429532684, 120.62944213623634, 332.7179811054657, 0.0, 0.0, 0.0], [0.06103723101858613, -0.06996670108737399, -0.01940408290601747, 60.17779833278879, 0.0, 0.0], [0.01115707697704185, 0.0149927092711287, 0.011446350231996348, 0.0, 72.83249160637605, 0.0], [0.020142963931540386, -0.018803204335167124, -0.0105459734894862, 0.0, 0.0, 74.56626312545575]], 'compliance_tensor': [[3.9, -0.9, -1.4, 0.0, 0.0, 0.0], [-0.9, 3.8, -1.2, 0.0, 0.0, 0.0], [-1.4, -1.2, 4.3, 0.0, 0.0, 0.0], [0.0, 0.0, 0.0, 13.7, 0.0, 0.0], [0.0, 0.0, 0.0, 0.0, 13.4, 0.0], [0.0, 0.0, 0.0, 0.0, 0.0, 16.6]], 'warnings': [], 'nsites': 24}",0,79,196,0.19,0.32,208.56
53,mp-7250,Nb6Co7,"{'Nb': 6.0, 'Co': 7.0}",0.149819886,8.885808435,"{'G_Reuss': 93.0, 'G_VRH': 95.0, 'G_Voigt': 96.0, 'G_Voigt_Reuss_Hill': 95.0, 'K_Reuss': 213.0, 'K_VRH': 213.0, 'K_Voigt': 213.0, 'K_Voigt_Reuss_Hill': 213.0, 'elastic_anisotropy': 0.18, 'elastic_tensor': [[353.0, 143.0, 135.0, -3.0, 0.0, 0.0], [143.0, 353.0, 135.0, 3.0, 0.0, 0.0], [135.0, 135.0, 385.0, 0.0, 0.0, 0.0], [-3.0, 3.0, 0.0, 76.0, 0.0, 0.0], [0.0, 0.0, 0.0, 0.0, 76.0, -3.0], [0.0, 0.0, 0.0, 0.0, -3.0, 105.0]], 'homogeneous_poisson': 0.31, 'poisson_ratio': 0.31, 'universal_anisotropy': 0.18, 'elastic_tensor_original': [[351.76345930377755, 142.7554008003035, 133.9710219868341, 2.242478543134567, 0.0, 0.0], [143.85373518991608, 353.60445354641735, 135.27453327939676, -1.708123786795607, 0.0, 0.0], [136.21018265606267, 136.2101067017514, 385.28279423897885, 0.0, 0.0, 0.0], [3.1619241680989214, -3.0760349157606233, -0.5338742520661502, 76.13470643751839, 0.0, 0.0], [0.28589829060089833, 0.28701664785667563, 0.29447751512012427, -0.0008767437951706978, 76.11867217656835, 3.093546912902158], [0.3123626845708234, 0.31643397802731227, 0.29959599064867304, 0.002132515624453744, 3.387601304426089, 104.40325157763377]], 'compliance_tensor': [[3.6, -1.1, -0.9, 0.2, -0.0, -0.0], [-1.1, 3.6, -0.9, -0.2, -0.0, -0.0], [-0.9, -0.9, 3.2, -0.0, 0.0, 0.0], [0.2, -0.2, -0.0, 13.1, -0.0, -0.0], [0.0, -0.0, 0.0, -0.0, 13.1, 0.4], [-0.0, -0.0, 0.0, -0.0, 0.4, 9.6]], 'warnings': [], 'nsites': 13}",0,95,213,0.18,0.31,248.9
54,mp-7597,NbSe2,"{'Nb': 1.0, 'Se': 2.0}",0.149909294,5.662443325,"{'G_Reuss': 4.0, 'G_VRH': 13.0, 'G_Voigt': 23.0, 'G_Voigt_Reuss_Hill': 13.0, 'K_Reuss': 5.0, 'K_VRH': 22.0, 'K_Voigt': 39.0, 'K_Voigt_Reuss_Hill': 22.0, 'elastic_anisotropy': 32.7, 'elastic_tensor': [[125.0, 44.0, 1.0, 1.0, 0.0, 0.0], [44.0, 125.0, 1.0, -1.0, 0.0, 0.0], [1.0, 1.0, 6.0, 0.0, 0.0, 0.0], [1.0, -1.0, 0.0, 2.0, 0.0, 0.0], [0.0, 0.0, 0.0, 0.0, 2.0, 1.0], [0.0, 0.0, 0.0, 0.0, 1.0, 40.0]], 'homogeneous_poisson': 0.25, 'poisson_ratio': 0.25, 'universal_anisotropy': 32.7, 'elastic_tensor_original': [[125.12963240408335, 44.76177354942295, 2.796162759132927, -0.5476078928352993, 0.0, 0.0], [44.224257117315865, 125.16481703877365, 2.5134965394732576, 0.5934979597885583, 0.0, 0.0], [0.27898546795314283, 0.2789852894043855, 5.627192767917256, 0.0, 0.0, 0.0], [-0.5455509871904696, 0.6126168582144214, 0.0720299437898436, 1.978082866736104, 0.0, 0.0], [0.0035583014846923503, 0.012262112910248717, 0.033959352939765486, -0.001526144925750612, 1.698218384464209, -0.5804829168867397], [-0.013556674978117309, -0.01935737158524552, -0.052411488775105174, -0.018567195281135027, -0.5746887323129529, 40.32165101545225]], 'compliance_tensor': [[9.2, -3.3, -1.5, -3.9, -0.0, 0.0], [-3.3, 9.2, -1.5, 3.9, -0.0, 0.0], [-1.5, -1.5, 178.5, -0.0, -0.0, -0.0], [-3.9, 3.9, -0.0, 546.5, 0.0, -0.0], [-0.0, -0.0, -0.0, 0.0, 546.5, -7.8], [0.0, 0.0, -0.0, -0.0, -7.8, 24.9]], 'warnings': [], 'nsites': 3}",0.9910275,13,22,32.7,0.25,32.5
55,mp-7598,NbAs2,"{'Nb': 1.0, 'As': 2.0}",0.085031796,7.264790629,"{'G_Reuss': 88.0, 'G_VRH': 90.0, 'G_Voigt': 92.0, 'G_Voigt_Reuss_Hill': 90.0, 'K_Reuss': 123.0, 'K_VRH': 124.0, 'K_Voigt': 126.0, 'K_Voigt_Reuss_Hill': 124.0, 'elastic_anisotropy': 0.27, 'elastic_tensor': [[272.0, 72.0, 75.0, 0.0, -25.0, 0.0], [72.0, 209.0, 56.0, 0.0, 12.0, 0.0], [75.0, 56.0, 244.0, 0.0, -6.0, 0.0], [0.0, 0.0, 0.0, 91.0, 0.0, 23.0], [-25.0, 12.0, -6.0, 0.0, 97.0, 0.0], [0.0, 0.0, 0.0, 23.0, 0.0, 98.0]], 'homogeneous_poisson': 0.21, 'poisson_ratio': 0.21, 'universal_anisotropy': 0.27, 'elastic_tensor_original': [[208.95097174079987, 57.78110102210629, 69.22854692635453, -13.71025988145997, 0.0, 0.0], [57.690883196821055, 303.84547818053215, 62.50938637847495, -0.24275177553423874, 0.0, 0.0], [71.16707805571923, 62.91166833761535, 236.65421535353792, 3.7513959620966717, 0.0, 0.0], [-13.148438810671909, 0.013649688567595826, 4.595900280621858, 84.88504342104638, 0.0, 0.0], [1.499997428312582e-07, -1.516664059318274e-06, 1.9299966825134996e-05, 9.523316963267095e-06, 112.35108104019012, -15.241460081064922], [0.0002961628452174564, -0.000252386250700955, -0.0008559952558736832, -0.00044959925900113, -15.039600632756928, 76.33435197759877]], 'compliance_tensor': [[4.4, -1.3, -1.0, 0.0, 1.2, 0.0], [-1.3, 5.5, -0.9, 0.0, -1.1, 0.0], [-1.0, -0.9, 4.6, 0.0, 0.1, 0.0], [0.0, 0.0, 0.0, 11.7, 0.0, -2.8], [1.2, -1.1, 0.1, 0.0, 10.8, 0.0], [0.0, 0.0, 0.0, -2.8, 0.0, 10.9]], 'warnings': [], 'nsites': 6}",0,90,124,0.27,0.21,217.8
56,mp-864992,MnNbRu2,"{'Mn': 1.0, 'Nb': 1.0, 'Ru': 2.0}",0.0975975,9.661758778,"{'G_Reuss': 84.0, 'G_VRH': 88.0, 'G_Voigt': 93.0, 'G_Voigt_Reuss_Hill': 88.0, 'K_Reuss': 220.0, 'K_VRH': 220.0, 'K_Voigt': 220.0, 'K_Voigt_Reuss_Hill': 220.0, 'elastic_anisotropy': 0.55, 'elastic_tensor': [[298.0, 180.0, 180.0, 0.0, 0.0, 0.0], [180.0, 298.0, 180.0, 0.0, 0.0, 0.0], [180.0, 180.0, 298.0, 0.0, 0.0, 0.0], [0.0, 0.0, 0.0, 115.0, 0.0, 0.0], [0.0, 0.0, 0.0, 0.0, 115.0, 0.0], [0.0, 0.0, 0.0, 0.0, 0.0, 115.0]], 'homogeneous_poisson': 0.32, 'poisson_ratio': 0.32, 'universal_anisotropy': 0.55, 'elastic_tensor_original': [[299.12819081865376, 179.84371741132506, 179.84371741132506, 0.0, 0.0, 0.0], [179.85380876812565, 299.13885383679803, 179.85380876812565, 0.0, 0.0, 0.0], [180.63704952607284, 180.63511695811258, 296.97000398078046, 0.00023610740238040178, -8.023962502771466e-05, 0.00020126070865272361], [-0.003638830921503212, -0.003584320872493736, -0.009476361599071576, 115.27221344006851, 0.0, 0.0], [-0.0010191958930187274, -0.0008990860006716443, -0.0009982359207247203, 0.0, 115.26963054815205, 0.0], [0.00014112001820642693, 6.0006745385827186e-05, 0.00013929669385232335, 0.0, 0.0, 115.26977507511155]], 'compliance_tensor': [[6.1, -2.3, -2.3, -0.0, -0.0, -0.0], [-2.3, 6.1, -2.3, -0.0, 0.0, -0.0], [-2.3, -2.3, 6.1, 0.0, -0.0, 0.0], [-0.0, -0.0, 0.0, 8.7, 0.0, 0.0], [-0.0, 0.0, -0.0, 0.0, 8.7, 0.0], [-0.0, -0.0, 0.0, 0.0, 0.0, 8.7]], 'warnings': [], 'nsites': 4}",0,88,220,0.55,0.32,232.32
57,mp-865248,TmNbRu2,"{'Tm': 1.0, 'Nb': 1.0, 'Ru': 2.0}",0.147691291,11.12462904,"{'G_Reuss': 71.0, 'G_VRH': 74.0, 'G_Voigt': 77.0, 'G_Voigt_Reuss_Hill': 74.0, 'K_Reuss': 178.0, 'K_VRH': 178.0, 'K_Voigt': 178.0, 'K_Voigt_Reuss_Hill': 178.0, 'elastic_anisotropy': 0.41, 'elastic_tensor': [[316.0, 109.0, 109.0, 0.0, 0.0, 0.0], [109.0, 316.0, 109.0, 0.0, 0.0, 0.0], [109.0, 109.0, 316.0, 0.0, 0.0, 0.0], [0.0, 0.0, 0.0, 59.0, 0.0, 0.0], [0.0, 0.0, 0.0, 0.0, 59.0, 0.0], [0.0, 0.0, 0.0, 0.0, 0.0, 59.0]], 'homogeneous_poisson': 0.32, 'poisson_ratio': 0.32, 'universal_anisotropy': 0.41, 'elastic_tensor_original': [[318.72431692145085, 111.03334350610153, 111.3061210207255, -0.08809320358114615, 0.01891178608951141, -0.057728347036876286], [108.46216463999947, 316.3519977147227, 108.56517015832576, -0.027227314538209448, 0.04420604492337045, 0.0299224441690144], [105.82146663893825, 105.88937643637776, 313.9789865020564, -0.00041699138775742656, -0.07168171953691405, 0.00037359228409154576], [-0.09616189190849615, 0.1343562424530404, -0.22212004868816912, 58.51668263732548, -0.03509495916654461, 0.051098286216121176], [-0.12139333089892389, -0.1954568124101643, -0.10801499851965793, -0.023378166930170783, 58.534158921340605, 0.07156272757759471], [0.7211197999518749, -0.4034434390436895, 0.2916503373481866, -0.02051944757222874, 0.002303724627374527, 58.57262767661053]], 'compliance_tensor': [[3.8, -1.0, -1.0, -0.0, -0.0, -0.0], [-1.0, 3.8, -1.0, 0.0, 0.0, -0.0], [-1.0, -1.0, 3.8, 0.0, -0.0, 0.0], [-0.0, 0.0, 0.0, 17.1, -0.0, -0.0], [-0.0, 0.0, -0.0, -0.0, 17.1, 0.0], [-0.0, -0.0, 0.0, -0.0, 0.0, 17.1]], 'warnings': ['Contains a rare earth element'], 'nsites': 4}",0,74,178,0.41,0.32,195.36
58,mp-865255,LuNbRu2,"{'Lu': 1.0, 'Nb': 1.0, 'Ru': 2.0}",0.130564167,11.4106784,"{'G_Reuss': 76.0, 'G_VRH': 78.0, 'G_Voigt': 81.0, 'G_Voigt_Reuss_Hill': 78.0, 'K_Reuss': 184.0, 'K_VRH': 184.0, 'K_Voigt': 184.0, 'K_Voigt_Reuss_Hill': 184.0, 'elastic_anisotropy': 0.33, 'elastic_tensor': [[326.0, 112.0, 112.0, 0.0, 0.0, 0.0], [112.0, 326.0, 112.0, 0.0, 0.0, 0.0], [112.0, 112.0, 326.0, 0.0, 0.0, 0.0], [0.0, 0.0, 0.0, 64.0, 0.0, 0.0], [0.0, 0.0, 0.0, 0.0, 64.0, 0.0], [0.0, 0.0, 0.0, 0.0, 0.0, 64.0]], 'homogeneous_poisson': 0.31, 'poisson_ratio': 0.31, 'universal_anisotropy': 0.33, 'elastic_tensor_original': [[326.2294496075377, 112.36325642870229, 112.36325642870229, 0.0, 0.0, 0.0], [112.36325642870229, 326.2294496075377, 112.36325642870229, 0.0, 0.0, 0.0], [112.36325642870229, 112.36325642870229, 326.2294496075377, 0.0, 0.0, 0.0], [0.0, 0.0, 0.0, 63.591621413172945, -0.0030505063135179288, 0.0], [0.0, 0.0, 0.0, 0.00305050631351825, 63.591621413172945, 0.0], [0.0, 0.0, 0.0, 0.0, 0.0030444063008917967, 63.591623613177504]], 'compliance_tensor': [[3.7, -1.0, -1.0, -0.0, 0.0, -0.0], [-1.0, 3.7, -1.0, 0.0, -0.0, 0.0], [-1.0, -1.0, 3.7, 0.0, 0.0, -0.0], [-0.0, 0.0, 0.0, 15.7, -0.0, 0.0], [0.0, -0.0, 0.0, -0.0, 15.7, 0.0], [-0.0, 0.0, -0.0, 0.0, 0.0, 15.7]], 'warnings': ['Contains a rare earth element'], 'nsites': 4}",0,78,184,0.33,0.31,204.36
59,mp-865278,NbAlOs2,"{'Nb': 1.0, 'Al': 1.0, 'Os': 2.0}",0.101178502,13.66563839,"{'G_Reuss': 130.0, 'G_VRH': 130.0, 'G_Voigt': 130.0, 'G_Voigt_Reuss_Hill': 130.0, 'K_Reuss': 262.0, 'K_VRH': 262.0, 'K_Voigt': 262.0, 'K_Voigt_Reuss_Hill': 262.0, 'elastic_anisotropy': 0.0, 'elastic_tensor': [[431.0, 178.0, 178.0, 0.0, 0.0, 0.0], [178.0, 431.0, 178.0, 0.0, 0.0, 0.0], [178.0, 178.0, 431.0, 0.0, 0.0, 0.0], [0.0, 0.0, 0.0, 132.0, 0.0, 0.0], [0.0, 0.0, 0.0, 0.0, 132.0, 0.0], [0.0, 0.0, 0.0, 0.0, 0.0, 132.0]], 'homogeneous_poisson': 0.29, 'poisson_ratio': 0.29, 'universal_anisotropy': 0.0, 'elastic_tensor_original': [[430.90662664525365, 177.9270243897276, 177.92733688862663, 2.1945147400458757e-06, -1.0573571020221037e-05, -1.2309232678257326e-05], [177.76727931556533, 430.7830567483253, 177.76727931556533, 0.0, 0.0, 0.0], [177.90535354000875, 177.90535354000875, 430.98351933352586, 0.0, 0.0, 0.0], [0.0014787797282603346, 0.001017813146299425, 0.0016287497006983191, 131.89809012218305, 0.0, 0.0], [0.001076489802183275, 0.0015378997173957148, 0.0016870830233121725, 0.0, 131.89799055220132, 0.0], [-7.300331991770406e-05, -5.912998913398706e-05, -7.909331879793062e-05, 0.0, 0.0, 131.8857833277779]], 'compliance_tensor': [[3.1, -0.9, -0.9, 0.0, 0.0, -0.0], [-0.9, 3.1, -0.9, 0.0, 0.0, 0.0], [-0.9, -0.9, 3.1, 0.0, 0.0, -0.0], [0.0, 0.0, 0.0, 7.6, 0.0, 0.0], [0.0, 0.0, 0.0, 0.0, 7.6, 0.0], [-0.0, 0.0, -0.0, 0.0, 0.0, 7.6]], 'warnings': [], 'nsites': 4}",0,130,262,0,0.29,335.4
60,mp-867146,ScNbRu2,"{'Sc': 1.0, 'Nb': 1.0, 'Ru': 2.0}",0.117382902,8.682952114,"{'G_Reuss': 89.0, 'G_VRH': 91.0, 'G_Voigt': 93.0, 'G_Voigt_Reuss_Hill': 91.0, 'K_Reuss': 195.0, 'K_VRH': 195.0, 'K_Voigt': 195.0, 'K_Voigt_Reuss_Hill': 195.0, 'elastic_anisotropy': 0.2, 'elastic_tensor': [[349.0, 118.0, 118.0, 0.0, 0.0, 0.0], [118.0, 349.0, 118.0, 0.0, 0.0, 0.0], [118.0, 118.0, 349.0, 0.0, 0.0, 0.0], [0.0, 0.0, 0.0, 77.0, 0.0, 0.0], [0.0, 0.0, 0.0, 0.0, 77.0, 0.0], [0.0, 0.0, 0.0, 0.0, 0.0, 77.0]], 'homogeneous_poisson': 0.3, 'poisson_ratio': 0.3, 'universal_anisotropy': 0.2, 'elastic_tensor_original': [[349.5647222514405, 117.78786093247257, 117.78786093247257, 0.0, 0.0, 0.0], [117.25997331773371, 348.5730797374676, 117.2590568021843, -0.00016644150603422649, -3.630870681796622e-05, -0.00010653213978458221], [117.72305998125732, 117.72305998125732, 349.4909296495544, 0.0, 0.0, 0.0], [-0.0002117563870804826, -0.00016806305102167775, -0.00021148302074116187, 76.96833240420382, 0.0, 0.0], [0.00012270323306502696, 0.00019266646823550568, 0.0001450232278031305, 0.0, 76.96816294814262, 0.0], [-0.0003500101299553355, -0.00034220347118274215, -0.00025886682558856616, 0.0, 0.0, 76.96843752447785]], 'compliance_tensor': [[3.4, -0.9, -0.9, -0.0, -0.0, 0.0], [-0.9, 3.4, -0.9, 0.0, -0.0, -0.0], [-0.9, -0.9, 3.4, -0.0, 0.0, -0.0], [-0.0, 0.0, -0.0, 13.0, 0.0, -0.0], [-0.0, -0.0, 0.0, 0.0, 13.0, -0.0], [0.0, -0.0, -0.0, -0.0, -0.0, 13.0]], 'warnings': [], 'nsites': 4}",0,91,195,0.2,0.3,236.6
61,mp-9339,NbP,"{'Nb': 1.0, 'P': 1.0}",0.093340274,6.386490671,"{'G_Reuss': 105.0, 'G_VRH': 109.0, 'G_Voigt': 113.0, 'G_Voigt_Reuss_Hill': 109.0, 'K_Reuss': 186.0, 'K_VRH': 188.0, 'K_Voigt': 190.0, 'K_Voigt_Reuss_Hill': 188.0, 'elastic_anisotropy': 0.41, 'elastic_tensor': [[324.0, 155.0, 122.0, 0.0, 0.0, 0.0], [155.0, 324.0, 122.0, 0.0, 0.0, 0.0], [122.0, 122.0, 264.0, 0.0, 0.0, 0.0], [0.0, 0.0, 0.0, 108.0, 0.0, 0.0], [0.0, 0.0, 0.0, 0.0, 108.0, 0.0], [0.0, 0.0, 0.0, 0.0, 0.0, 178.0]], 'homogeneous_poisson': 0.26, 'poisson_ratio': 0.26, 'universal_anisotropy': 0.41, 'elastic_tensor_original': [[323.7407054275971, 155.31935224901466, 119.79085270147613, 0.0, 0.0, 0.0], [155.31990740897197, 323.74035858515873, 119.79122959203836, 0.0, 0.0, 0.0], [123.41731441377486, 123.41731441377486, 264.47819769477604, 0.0, 0.0, 0.0], [3.9859999361994626e-05, -1.771333304896447e-05, -0.00014287333104843073, 108.39305845349469, 0.0, 0.0], [8.214666535439171e-05, -3.70799994072203e-05, 0.00010998666490810072, 0.0, 108.39332756015705, 0.0], [-8.134667102613652e-05, -6.167000330712683e-05, 3.0866668339500435e-06, 0.0, 0.0, 177.52470317435282]], 'compliance_tensor': [[4.3, -1.6, -1.3, 0.0, 0.0, 0.0], [-1.6, 4.3, -1.3, 0.0, -0.0, 0.0], [-1.3, -1.3, 4.9, 0.0, -0.0, 0.0], [0.0, 0.0, 0.0, 9.2, 0.0, 0.0], [0.0, -0.0, -0.0, 0.0, 9.2, 0.0], [0.0, 0.0, 0.0, 0.0, 0.0, 5.6]], 'warnings': [], 'nsites': 4}",0,109,188,0.41,0.26,274.68
62,mp-953,NbZn3,"{'Nb': 1.0, 'Zn': 3.0}",0.17669882,7.802320965,"{'G_Reuss': 69.0, 'G_VRH': 71.0, 'G_Voigt': 74.0, 'G_Voigt_Reuss_Hill': 71.0, 'K_Reuss': 119.0, 'K_VRH': 119.0, 'K_Voigt': 119.0, 'K_Voigt_Reuss_Hill': 119.0, 'elastic_anisotropy': 0.39, 'elastic_tensor': [[187.0, 85.0, 85.0, 0.0, 0.0, 0.0], [85.0, 187.0, 85.0, 0.0, 0.0, 0.0], [85.0, 85.0, 187.0, 0.0, 0.0, 0.0], [0.0, 0.0, 0.0, 90.0, 0.0, 0.0], [0.0, 0.0, 0.0, 0.0, 90.0, 0.0], [0.0, 0.0, 0.0, 0.0, 0.0, 90.0]], 'homogeneous_poisson': 0.25, 'poisson_ratio': 0.25, 'universal_anisotropy': 0.39, 'elastic_tensor_original': [[186.90823942263322, 85.03760955142258, 85.03760955142258, 0.0, 0.0, 0.0], [85.03272382180242, 186.90337843409222, 85.03272382180242, 0.0, 0.0, 0.0], [85.03977037553851, 85.03977037553851, 186.91036979504602, 0.0, 0.0, 0.0], [4.9160044726840175e-05, 8.92659305391715e-06, -3.95966356846764e-05, 89.71432511266605, 0.0, 0.0], [0.00011726323104501072, 2.1356578099614596e-05, 8.745000843075575e-05, 0.0, 89.71416579578808, 0.0], [9.119972155570821e-05, 9.116987020626331e-05, 5.769645963703513e-05, 0.0, 0.0, 89.71436785600004]], 'compliance_tensor': [[7.5, -2.3, -2.3, -0.0, 0.0, -0.0], [-2.3, 7.5, -2.3, -0.0, 0.0, 0.0], [-2.3, -2.3, 7.5, 0.0, -0.0, 0.0], [-0.0, -0.0, 0.0, 11.1, -0.0, 0.0], [0.0, 0.0, -0.0, -0.0, 11.1, -0.0], [-0.0, 0.0, 0.0, 0.0, -0.0, 11.1]], 'warnings': [], 'nsites': 4}",0,71,119,0.39,0.25,177.5
63,mp-977434,Nb3Ru,"{'Nb': 3.0, 'Ru': 1.0}",0.119591269,9.267233068,"{'G_Reuss': 92.0, 'G_VRH': 94.0, 'G_Voigt': 96.0, 'G_Voigt_Reuss_Hill': 94.0, 'K_Reuss': 201.0, 'K_VRH': 201.0, 'K_Voigt': 201.0, 'K_Voigt_Reuss_Hill': 201.0, 'elastic_anisotropy': 0.22, 'elastic_tensor': [[363.0, 121.0, 121.0, 0.0, 0.0, 0.0], [121.0, 363.0, 121.0, 0.0, 0.0, 0.0], [121.0, 121.0, 363.0, 0.0, 0.0, 0.0], [0.0, 0.0, 0.0, 79.0, 0.0, 0.0], [0.0, 0.0, 0.0, 0.0, 79.0, 0.0], [0.0, 0.0, 0.0, 0.0, 0.0, 79.0]], 'homogeneous_poisson': 0.3, 'poisson_ratio': 0.3, 'universal_anisotropy': 0.22, 'elastic_tensor_original': [[362.76789597423317, 120.84245266165053, 120.84245266165053, 0.0, 0.0, 0.0], [120.84245266165053, 362.76789597423317, 120.84245266165053, 0.0, 0.0, 0.0], [120.84245266165053, 120.84245266165053, 362.76789597423317, 0.0, 0.0, 0.0], [0.0, 0.7876802114706636, -0.7876802114706538, 78.76337068891554, 0.0, 0.0], [-0.7876802114706538, 0.0, 0.7876802114706616, 0.0, 78.76337068891554, 0.0], [0.7876802114706557, -0.7876802114706567, 0.0, 0.0, 0.0, 78.76337068891559]], 'compliance_tensor': [[3.3, -0.8, -0.8, 0.0, -0.0, 0.0], [-0.8, 3.3, -0.8, -0.0, 0.0, -0.0], [-0.8, -0.8, 3.3, -0.0, -0.0, -0.0], [0.0, -0.0, -0.0, 12.7, 0.0, -0.0], [-0.0, 0.0, -0.0, -0.0, 12.7, -0.0], [0.0, -0.0, -0.0, -0.0, -0.0, 12.7]], 'warnings': [], 'nsites': 4}",0,94,201,0.22,0.3,244.4