,mp_id,Formula,Composition,IPF,Density,Elastic_Tensor,E_above_Hull,G_VRH,K_VRH,Elastic_Anisotropy,poisson_ratio,Y_Modulus
127,mp-864640,Ta2NbIr,"{'Ta': 2.0, 'Nb': 1.0, 'Ir': 1.0}",0.12938278,15.7892851,"{'G_Reuss': 105.0, 'G_VRH': 107.0, 'G_Voigt': 108.0, 'G_Voigt_Reuss_Hill': 107.0, 'K_Reuss': 237.0, 'K_VRH': 237.0, 'K_Voigt': 237.0, 'K_Voigt_Reuss_Hill': 237.0, 'elastic_anisotropy': 0.12, 'elastic_tensor': [[408.0, 152.0, 152.0, 0.0, 0.0, 0.0], [152.0, 408.0, 152.0, 0.0, 0.0, 0.0], [152.0, 152.0, 408.0, 0.0, 0.0, 0.0], [0.0, 0.0, 0.0, 94.0, 0.0, 0.0], [0.0, 0.0, 0.0, 0.0, 94.0, 0.0], [0.0, 0.0, 0.0, 0.0, 0.0, 94.0]], 'homogeneous_poisson': 0.3, 'poisson_ratio': 0.3, 'universal_anisotropy': 0.12, 'elastic_tensor_original': [[408.2939533672657, 151.5667926014433, 151.56665907019126, -6.427945857098637e-05, -8.902083470217699e-06, -2.8891671803116448e-05], [151.6075798639018, 408.3265348065011, 151.60734887087557, -3.524743860505117e-05, -8.1381884697328e-05, 1.7844266415526464e-05], [151.57807665465617, 151.57811907990074, 408.3046899555141, -1.4034816281874749e-07, 1.1869444626956929e-05, -1.804476379098182e-05], [-1.8260026175285827e-05, -8.67801534561131e-05, -5.689673973913752e-05, 94.1531514312749, 0.0, 0.0], [3.087333874195799e-05, 2.2343348174783658e-05, 2.510667241848822e-05, 0.0, 94.15320825114348, 0.0], [-2.536546871627781e-06, 2.8773418581894563e-05, 1.1936774021635747e-05, 0.0, 0.0, 94.15329303105123]], 'compliance_tensor': [[3.1, -0.8, -0.8, -0.0, 0.0, 0.0], [-0.8, 3.1, -0.8, 0.0, -0.0, 0.0], [-0.8, -0.8, 3.1, 0.0, 0.0, -0.0], [-0.0, 0.0, 0.0, 10.6, -0.0, -0.0], [0.0, -0.0, 0.0, -0.0, 10.6, -0.0], [0.0, 0.0, -0.0, -0.0, -0.0, 10.6]], 'warnings': [], 'nsites': 4}",0,107,237,0.12,0.3,278.2
128,mp-864651,Ta2NbRu,"{'Ta': 2.0, 'Nb': 1.0, 'Ru': 1.0}",0.120207751,13.63375391,"{'G_Reuss': 90.0, 'G_VRH': 92.0, 'G_Voigt': 93.0, 'G_Voigt_Reuss_Hill': 92.0, 'K_Reuss': 225.0, 'K_VRH': 225.0, 'K_Voigt': 225.0, 'K_Voigt_Reuss_Hill': 225.0, 'elastic_anisotropy': 0.2, 'elastic_tensor': [[381.0, 147.0, 147.0, 0.0, 0.0, 0.0], [147.0, 381.0, 147.0, 0.0, 0.0, 0.0], [147.0, 147.0, 381.0, 0.0, 0.0, 0.0], [0.0, 0.0, 0.0, 78.0, 0.0, 0.0], [0.0, 0.0, 0.0, 0.0, 78.0, 0.0], [0.0, 0.0, 0.0, 0.0, 0.0, 78.0]], 'homogeneous_poisson': 0.32, 'poisson_ratio': 0.32, 'universal_anisotropy': 0.2, 'elastic_tensor_original': [[378.17971113928235, 147.12287274419944, 147.12287274419944, 0.0, 0.0, 0.0], [147.68611312814215, 385.7501160934239, 147.68611312814215, 0.0, 0.0, 0.0], [147.23301415760068, 147.23301415760068, 378.2921162859334, 0.0, 0.0, 0.0], [0.0004676531450414879, 0.00045714315575067134, 0.0005198031362320556, 77.89685680941042, 0.0, 0.0], [-3.0056727692456533e-05, -3.7560065957032594e-05, -2.3723394658070384e-05, 0.0, 77.89667499947117, 0.0], [-0.00032032000777414555, -0.0003296433417332923, -0.0003415366629420125, 0.0, 0.0, 77.89693096275833]], 'compliance_tensor': [[3.3, -0.9, -0.9, 0.0, 0.0, 0.0], [-0.9, 3.3, -0.9, -0.0, 0.0, 0.0], [-0.9, -0.9, 3.3, 0.0, 0.0, 0.0], [0.0, -0.0, 0.0, 12.8, 0.0, -0.0], [0.0, 0.0, 0.0, 0.0, 12.8, 0.0], [0.0, 0.0, 0.0, -0.0, 0.0, 12.8]], 'warnings': [], 'nsites': 4}",0,92,225,0.2,0.32,242.88
129,mp-864669,NbGeRu2,"{'Nb': 1.0, 'Ge': 1.0, 'Ru': 2.0}",0.110003857,10.11292528,"{'G_Reuss': 138.0, 'G_VRH': 70.0, 'G_Voigt': 2.0, 'G_Voigt_Reuss_Hill': 70.0, 'K_Reuss': 225.0, 'K_VRH': 225.0, 'K_Voigt': 225.0, 'K_Voigt_Reuss_Hill': 225.0, 'elastic_anisotropy': -4.94, 'elastic_tensor': [[144.0, 266.0, 266.0, 0.0, 0.0, 0.0], [266.0, 144.0, 266.0, 0.0, 0.0, 0.0], [266.0, 266.0, 144.0, 0.0, 0.0, 0.0], [0.0, 0.0, 0.0, 44.0, 0.0, 0.0], [0.0, 0.0, 0.0, 0.0, 44.0, 0.0], [0.0, 0.0, 0.0, 0.0, 0.0, 44.0]], 'homogeneous_poisson': 0.36, 'poisson_ratio': 0.36, 'universal_anisotropy': -4.94, 'elastic_tensor_original': [[141.63706769114432, 269.69475518612876, 269.6942355252215, 8.66201928329335e-05, -6.609298603072126e-05, -6.609298603072126e-05], [266.7520825820293, 144.93677038597954, 266.7518255839147, 6.61324476620666e-05, -8.56794046931474e-05, -6.61324476620666e-05], [261.8833704344993, 261.88362272397893, 146.23696838779972, 6.55538068945451e-05, -6.55538068945451e-05, -8.412322630713141e-05], [0.011820867844765786, -0.012205501346325568, -0.014483800125605075, 43.51219992964347, -6.9833384824313364e-06, -6.9566715100009885e-06], [0.012148041061741239, -0.011684351131735033, 0.014364051484735898, -2.9600001791928643e-06, 43.51207147366929, 6.956668068267047e-06], [-0.0036707150825199984, -0.004509989838525948, -0.007704033606589253, -2.969996652401796e-06, 6.959992117584053e-06, 43.51774194524492]], 'compliance_tensor': [[-5.0, 3.2, 3.2, 0.0, 0.0, -0.0], [3.2, -5.0, 3.2, -0.0, -0.0, 0.0], [3.2, 3.2, -5.0, 0.0, -0.0, 0.0], [0.0, -0.0, 0.0, 23.0, 0.0, -0.0], [0.0, -0.0, -0.0, 0.0, 23.0, 0.0], [-0.0, 0.0, 0.0, -0.0, 0.0, 23.0]], 'warnings': ['Elastic tensor has a negative eigenvalue', 'c11 and c12 are within 5% or c12 is greater than c11', 'c11 and c13 are within 5% or c13 is greater than c11', 'c11 and c23 are within 5% or c23 is greater than c11', 'One or more K, G below 2 GPa'], 'nsites': 4}",0,70,225,-4.94,0.36,190.4
130,mp-864840,NbZnRu2,"{'Nb': 1.0, 'Zn': 1.0, 'Ru': 2.0}",0.126653691,9.996395114,"{'G_Reuss': 72.0, 'G_VRH': 77.0, 'G_Voigt': 81.0, 'G_Voigt_Reuss_Hill': 77.0, 'K_Reuss': 218.0, 'K_VRH': 218.0, 'K_Voigt': 218.0, 'K_Voigt_Reuss_Hill': 218.0, 'elastic_anisotropy': 0.64, 'elastic_tensor': [[284.0, 185.0, 185.0, 0.0, 0.0, 0.0], [185.0, 284.0, 185.0, 0.0, 0.0, 0.0], [185.0, 185.0, 284.0, 0.0, 0.0, 0.0], [0.0, 0.0, 0.0, 102.0, 0.0, 0.0], [0.0, 0.0, 0.0, 0.0, 102.0, 0.0], [0.0, 0.0, 0.0, 0.0, 0.0, 102.0]], 'homogeneous_poisson': 0.34, 'poisson_ratio': 0.34, 'universal_anisotropy': 0.64, 'elastic_tensor_original': [[284.84035804730956, 184.96582158529299, 184.96582158529299, 0.0, 0.0, 0.0], [185.13902468991787, 284.3875617530114, 185.13902468991787, 0.0, 0.0, 0.0], [183.51119612264947, 183.51108472639584, 283.6831157568496, 3.420482519316397e-05, 2.3738870474036414e-05, 5.453524298089447e-06], [0.002024709021503923, 0.001988979048565268, 0.002009449035474507, 102.06704299431337, 0.0, 0.0], [-0.005645563322049353, -0.005554333240577014, -0.00555769660781508, 0.0, 102.06721417197966, 0.0], [0.00392293839514628, 0.003865668288465638, 0.0038928116587490973, 0.0, 0.0, 102.06679480819581]], 'compliance_tensor': [[7.2, -2.8, -2.8, -0.0, -0.0, 0.0], [-2.8, 7.2, -2.8, 0.0, -0.0, -0.0], [-2.8, -2.8, 7.2, -0.0, 0.0, -0.0], [-0.0, 0.0, -0.0, 9.8, -0.0, -0.0], [-0.0, -0.0, 0.0, -0.0, 9.8, -0.0], [0.0, -0.0, -0.0, -0.0, -0.0, 9.8]], 'warnings': [], 'nsites': 4}",0,77,218,0.64,0.34,206.36
131,mp-864857,NbZnCo2,"{'Nb': 1.0, 'Zn': 1.0, 'Co': 2.0}",0.171429192,8.770584948,"{'G_Reuss': 43.0, 'G_VRH': 56.0, 'G_Voigt': 69.0, 'G_Voigt_Reuss_Hill': 56.0, 'K_Reuss': 185.0, 'K_VRH': 185.0, 'K_Voigt': 185.0, 'K_Voigt_Reuss_Hill': 185.0, 'elastic_anisotropy': 3.02, 'elastic_tensor': [[216.0, 169.0, 169.0, 0.0, 0.0, 0.0], [169.0, 216.0, 169.0, 0.0, 0.0, 0.0], [169.0, 169.0, 216.0, 0.0, 0.0, 0.0], [0.0, 0.0, 0.0, 100.0, 0.0, 0.0], [0.0, 0.0, 0.0, 0.0, 100.0, 0.0], [0.0, 0.0, 0.0, 0.0, 0.0, 100.0]], 'homogeneous_poisson': 0.36, 'poisson_ratio': 0.36, 'universal_anisotropy': 3.02, 'elastic_tensor_original': [[215.45873009095084, 168.8159339225055, 168.81628903581867, 0.0004614632555686271, 0.0012243322747824252, 0.00029542877590163036], [168.86529346077626, 215.58342826219385, 168.86398684348802, -0.0006219017031440654, -7.227511725852568e-05, 0.00011565760790923766], [170.57213456907482, 170.57274228513157, 217.32393811265433, 0.0010114554047550791, 0.0004891720846398779, -0.00040881141734968647], [-0.021413123636444154, -0.01528710243102735, -0.017113764422819675, 100.02993556645963, -6.111676325123376e-05, -3.278332069339356e-05], [-0.10359573413564437, -0.10257276692534031, -0.10330529009868612, -2.6689942629020804e-05, 100.03488642957248, 3.416008798674388e-05], [0.060019967804372035, 0.06067841717647386, 0.060522735822480016, -9.635999916397152e-05, -0.00012120660840527317, 100.0412183603234]], 'compliance_tensor': [[14.9, -6.5, -6.5, -0.0, 0.0, 0.0], [-6.5, 14.9, -6.5, 0.0, -0.0, -0.0], [-6.5, -6.5, 14.9, -0.0, -0.0, -0.0], [-0.0, 0.0, -0.0, 10.0, 0.0, 0.0], [0.0, -0.0, -0.0, 0.0, 10.0, 0.0], [0.0, -0.0, -0.0, 0.0, 0.0, 10.0]], 'warnings': [], 'nsites': 4}",0,56,185,3.02,0.36,152.32
132,mp-865280,NbAlFe2,"{'Nb': 1.0, 'Al': 1.0, 'Fe': 2.0}",0.167907973,7.347107032,"{'G_Reuss': 124.0, 'G_VRH': 124.0, 'G_Voigt': 124.0, 'G_Voigt_Reuss_Hill': 124.0, 'K_Reuss': 212.0, 'K_VRH': 212.0, 'K_Voigt': 212.0, 'K_Voigt_Reuss_Hill': 212.0, 'elastic_anisotropy': 0.0, 'elastic_tensor': [[379.0, 128.0, 128.0, 0.0, 0.0, 0.0], [128.0, 379.0, 128.0, 0.0, 0.0, 0.0], [128.0, 128.0, 379.0, 0.0, 0.0, 0.0], [0.0, 0.0, 0.0, 123.0, 0.0, 0.0], [0.0, 0.0, 0.0, 0.0, 123.0, 0.0], [0.0, 0.0, 0.0, 0.0, 0.0, 123.0]], 'homogeneous_poisson': 0.26, 'poisson_ratio': 0.26, 'universal_anisotropy': 0.0, 'elastic_tensor_original': [[378.59279167518434, 128.29515434933273, 128.29515434933273, 0.0, 0.0, 0.0], [128.44605483756783, 378.7566656824642, 128.44605483756783, 0.0, 0.0, 0.0], [128.46206662096438, 128.46206662096438, 378.7708087472571, 0.0, 0.0, 0.0], [0.056982292141381535, 0.056677452540071616, 0.05691745889284096, 122.95937832876378, 0.0, 0.0], [0.0010285653214403398, 0.0010139053406135843, 0.0010551519533338108, 0.0, 122.9722077186513, 0.0], [-0.01197619433672524, -0.01179141124506404, -0.012118567483852245, 0.0, 0.0, 122.96121996968853]], 'compliance_tensor': [[3.2, -0.8, -0.8, -0.0, 0.0, 0.0], [-0.8, 3.2, -0.8, 0.0, -0.0, 0.0], [-0.8, -0.8, 3.2, 0.0, 0.0, -0.0], [-0.0, 0.0, 0.0, 8.1, -0.0, -0.0], [0.0, -0.0, 0.0, -0.0, 8.1, -0.0], [0.0, 0.0, -0.0, -0.0, -0.0, 8.1]], 'warnings': [], 'nsites': 4}",0,124,212,0,0.26,312.48
133,mp-865653,TiNbRe2,"{'Ti': 1.0, 'Nb': 1.0, 'Re': 2.0}",0.124416023,13.37431832,"{'G_Reuss': 114.0, 'G_VRH': 115.0, 'G_Voigt': 115.0, 'G_Voigt_Reuss_Hill': 115.0, 'K_Reuss': 254.0, 'K_VRH': 254.0, 'K_Voigt': 254.0, 'K_Voigt_Reuss_Hill': 254.0, 'elastic_anisotropy': 0.04, 'elastic_tensor': [[425.0, 168.0, 168.0, 0.0, 0.0, 0.0], [168.0, 425.0, 168.0, 0.0, 0.0, 0.0], [168.0, 168.0, 425.0, 0.0, 0.0, 0.0], [0.0, 0.0, 0.0, 106.0, 0.0, 0.0], [0.0, 0.0, 0.0, 0.0, 106.0, 0.0], [0.0, 0.0, 0.0, 0.0, 0.0, 106.0]], 'homogeneous_poisson': 0.3, 'poisson_ratio': 0.3, 'universal_anisotropy': 0.04, 'elastic_tensor_original': [[430.37808850565403, 165.57501308712543, 165.57501308712543, 0.0, 0.0, 0.0], [169.75014056443, 422.33435184702154, 169.75014056443, 0.0, 0.0, 0.0], [169.60884972280522, 169.60884972280522, 422.2068586190336, 0.0, 0.0, 0.0], [0.0011913474699378095, 0.01910262621335253, -0.0027624085292296957, 106.44792117291145, 0.0, 0.0], [-0.017785225325086255, -0.001308747549093521, 0.003797539227172607, 0.0, 106.45145403196021, 0.0], [0.029578056609782553, 0.007842631954591462, 0.011247160916774598, 0.0, 0.0, 106.44769018275571]], 'compliance_tensor': [[3.0, -0.9, -0.9, -0.0, -0.0, 0.0], [-0.9, 3.0, -0.9, 0.0, -0.0, -0.0], [-0.9, -0.9, 3.0, -0.0, 0.0, -0.0], [-0.0, 0.0, -0.0, 9.4, -0.0, -0.0], [-0.0, -0.0, 0.0, -0.0, 9.4, -0.0], [0.0, -0.0, -0.0, -0.0, -0.0, 9.4]], 'warnings': [], 'nsites': 4}",0,115,254,0.04,0.3,299
134,mp-866026,ErNbOs2,"{'Er': 1.0, 'Nb': 1.0, 'Os': 2.0}",0.134104194,15.11136385,"{'G_Reuss': 85.0, 'G_VRH': 86.0, 'G_Voigt': 87.0, 'G_Voigt_Reuss_Hill': 86.0, 'K_Reuss': 211.0, 'K_VRH': 211.0, 'K_Voigt': 211.0, 'K_Voigt_Reuss_Hill': 211.0, 'elastic_anisotropy': 0.06, 'elastic_tensor': [[343.0, 146.0, 146.0, 0.0, 0.0, 0.0], [146.0, 343.0, 146.0, 0.0, 0.0, 0.0], [146.0, 146.0, 343.0, -0.0, 0.0, 0.0], [0.0, 0.0, -0.0, 78.0, 0.0, 0.0], [0.0, 0.0, 0.0, 0.0, 78.0, 0.0], [0.0, 0.0, 0.0, 0.0, 0.0, 78.0]], 'homogeneous_poisson': 0.32, 'poisson_ratio': 0.32, 'universal_anisotropy': 0.06, 'elastic_tensor_original': [[342.8767470631407, 146.45855279669877, 145.4369906415666, 0.5443506460645756, 0.455041261957407, 0.3122480466839121], [145.01535939133328, 343.214796384317, 145.53047798556676, -0.1621090499471695, 0.09869815217733852, 0.09876315227755865], [145.5368802192458, 146.4174966010661, 342.9871617278198, -0.43108676859000356, 0.41856527406918703, -0.5723533785813625], [0.11530821940082607, 0.5455244727726305, 0.0054061402675098435, 78.16719033557736, -0.26720647751249504, 0.20145189334445757], [-0.4445459272695987, -0.21798660642573492, -0.43653336864536146, 0.25806166531178276, 78.72929223962223, 0.1260706379614543], [0.9184895678270308, -0.5806989507727128, 0.10266348059582354, 0.4882652691593482, -0.04640846062281527, 78.34047292515508]], 'compliance_tensor': [[3.9, -1.2, -1.2, -0.0, -0.0, -0.0], [-1.2, 3.9, -1.2, 0.0, 0.0, -0.0], [-1.2, -1.2, 3.9, 0.0, -0.0, 0.0], [-0.0, 0.0, 0.0, 12.8, -0.0, -0.0], [-0.0, 0.0, -0.0, -0.0, 12.8, 0.0], [-0.0, -0.0, 0.0, -0.0, 0.0, 12.8]], 'warnings': ['Contains a rare earth element'], 'nsites': 4}",0,86,211,0.06,0.32,227.04
135,mp-867828,BeNbRu2,"{'Be': 1.0, 'Nb': 1.0, 'Ru': 2.0}",0.10077746,9.103517464,"{'G_Reuss': 71.0, 'G_VRH': 71.0, 'G_Voigt': 71.0, 'G_Voigt_Reuss_Hill': 71.0, 'K_Reuss': 231.0, 'K_VRH': 231.0, 'K_Voigt': 231.0, 'K_Voigt_Reuss_Hill': 231.0, 'elastic_anisotropy': 0.0, 'elastic_tensor': [[323.0, 184.0, 184.0, 0.0, 0.0, 0.0], [184.0, 323.0, 184.0, 0.0, 0.0, 0.0], [184.0, 184.0, 323.0, 0.0, 0.0, 0.0], [0.0, 0.0, 0.0, 73.0, 0.0, 0.0], [0.0, 0.0, 0.0, 0.0, 73.0, 0.0], [0.0, 0.0, 0.0, 0.0, 0.0, 73.0]], 'homogeneous_poisson': 0.36, 'poisson_ratio': 0.36, 'universal_anisotropy': 0.0, 'elastic_tensor_original': [[323.85612176155917, 184.50700005966465, 184.50700005966465, 0.0, 0.0, 0.0], [183.90818395297921, 322.7157547929194, 183.90818395297921, 0.0, 0.0, 0.0], [184.47991787850384, 184.47991787850384, 323.81815984048535, 0.0, 0.0, 0.0], [0.006600550065401905, 0.006222103394985231, 0.006041093393190969, 72.55260706221026, 0.0, 0.0], [-0.009034413422847548, 0.004321300042818554, -0.009101976756851817, 0.0, 72.54435549879514, 0.0], [0.0378443470416424, 0.03822572371208741, 0.03824500371227995, 0.0, 0.0, 72.54939774551178]], 'compliance_tensor': [[5.3, -1.9, -1.9, 0.0, 0.0, -0.0], [-1.9, 5.3, -1.9, -0.0, 0.0, 0.0], [-1.9, -1.9, 5.3, 0.0, -0.0, 0.0], [0.0, -0.0, 0.0, 13.8, -0.0, -0.0], [0.0, 0.0, -0.0, -0.0, 13.8, -0.0], [-0.0, 0.0, 0.0, -0.0, -0.0, 13.8]], 'warnings': [], 'nsites': 4}",0,71,231,0,0.36,193.12
136,mp-977430,MgNbRu2,"{'Mg': 1.0, 'Nb': 1.0, 'Ru': 2.0}",0.119172383,8.547752408,"{'G_Reuss': 79.0, 'G_VRH': 79.0, 'G_Voigt': 79.0, 'G_Voigt_Reuss_Hill': 79.0, 'K_Reuss': 228.0, 'K_VRH': 228.0, 'K_Voigt': 228.0, 'K_Voigt_Reuss_Hill': 228.0, 'elastic_anisotropy': 0.03, 'elastic_tensor': [[324.0, 180.0, 180.0, 0.0, 0.0, 0.0], [180.0, 324.0, 180.0, 0.0, 0.0, 0.0], [180.0, 180.0, 324.0, 0.0, 0.0, 0.0], [0.0, 0.0, 0.0, 85.0, 0.0, 0.0], [0.0, 0.0, 0.0, 0.0, 85.0, 0.0], [0.0, 0.0, 0.0, 0.0, 0.0, 85.0]], 'homogeneous_poisson': 0.34, 'poisson_ratio': 0.34, 'universal_anisotropy': 0.03, 'elastic_tensor_original': [[323.669319098482, 180.33749368803205, 180.33749368803205, -0.4579767978725675, -0.32127046420545413, 0.32127046420545413], [180.33749368803205, 323.669319098482, 180.33749368803205, -0.32127046420544453, 0.4579767978725744, -0.3212706642071099], [180.33749368803205, 180.33749368803205, 323.669319098482, -0.32127066420710315, -0.32127066420710315, 0.45797679787256734], [0.0, 0.0, 0.0, 84.68460148781631, 0.0, 0.0], [0.0, 0.0, 0.0, 0.0, 84.68460148781631, 0.0], [0.0, 0.0, 0.0, 0.0, 0.0, 84.68460148781631]], 'compliance_tensor': [[5.1, -1.8, -1.8, 0.0, -0.0, -0.0], [-1.8, 5.1, -1.8, -0.0, 0.0, 0.0], [-1.8, -1.8, 5.1, -0.0, -0.0, 0.0], [0.0, -0.0, -0.0, 11.8, 0.0, -0.0], [-0.0, 0.0, -0.0, 0.0, 11.8, -0.0], [-0.0, 0.0, 0.0, -0.0, -0.0, 11.8]], 'warnings': [], 'nsites': 4}",0,79,228,0.03,0.34,211.72
137,mp-991676,NbCu3Te4,"{'Nb': 1.0, 'Cu': 3.0, 'Te': 4.0}",0.212428601,6.157085005,"{'G_Reuss': 20.0, 'G_VRH': 20.0, 'G_Voigt': 20.0, 'G_Voigt_Reuss_Hill': 20.0, 'K_Reuss': 30.0, 'K_VRH': 30.0, 'K_Voigt': 30.0, 'K_Voigt_Reuss_Hill': 30.0, 'elastic_anisotropy': 0.02, 'elastic_tensor': [[59.0, 16.0, 16.0, 0.0, 0.0, 0.0], [16.0, 59.0, 16.0, 0.0, 0.0, 0.0], [16.0, 16.0, 59.0, 0.0, 0.0, 0.0], [0.0, 0.0, 0.0, 19.0, 0.0, 0.0], [0.0, 0.0, 0.0, 0.0, 19.0, 0.0], [0.0, 0.0, 0.0, 0.0, 0.0, 19.0]], 'homogeneous_poisson': 0.23, 'poisson_ratio': 0.23, 'universal_anisotropy': 0.02, 'elastic_tensor_original': [[58.7262982943652, 15.560930846966633, 15.560930846966633, 0.0, 0.0, 0.0], [15.59636671479144, 58.64961154800411, 15.59636671479144, 0.0, 0.0, 0.0], [15.600814298063055, 15.600814298063055, 58.65347451469918, 0.0, 0.0, 0.0], [0.0014052140937419232, 0.0023481147901790226, 0.0018630726725550751, 19.1933385397398, 0.0, 0.0], [-0.02292292867717201, -0.0201224706084752, -0.017231981755533574, 0.0, 19.21223255111761, 0.0], [0.004059393838040884, 0.004224493767509631, 0.004429239665044107, 0.0, 0.0, 19.20951382914928]], 'compliance_tensor': [[19.2, -4.0, -4.0, 0.0, 0.0, 0.0], [-4.0, 19.2, -4.0, 0.0, 0.0, 0.0], [-4.0, -4.0, 19.2, 0.0, 0.0, 0.0], [0.0, 0.0, 0.0, 52.1, 0.0, 0.0], [0.0, 0.0, 0.0, 0.0, 52.1, 0.0], [0.0, 0.0, 0.0, 0.0, 0.0, 52.1]], 'warnings': [], 'nsites': 8}",0,20,30,0.02,0.23,49.2
138,mp-996161,Nb3AlC2,"{'Nb': 3.0, 'Al': 1.0, 'C': 2.0}",0.103357723,6.702489349,"{'G_Reuss': 136.0, 'G_VRH': 137.0, 'G_Voigt': 137.0, 'G_Voigt_Reuss_Hill': 137.0, 'K_Reuss': 202.0, 'K_VRH': 203.0, 'K_Voigt': 203.0, 'K_Voigt_Reuss_Hill': 203.0, 'elastic_anisotropy': 0.07, 'elastic_tensor': [[391.0, 103.0, 127.0, 0.0, 0.0, 0.0], [103.0, 391.0, 127.0, 0.0, 0.0, 0.0], [127.0, 127.0, 332.0, 0.0, 0.0, 0.0], [0.0, 0.0, 0.0, 146.0, 0.0, 0.0], [0.0, 0.0, 0.0, 0.0, 146.0, 0.0], [0.0, 0.0, 0.0, 0.0, 0.0, 144.0]], 'homogeneous_poisson': 0.22, 'poisson_ratio': 0.22, 'universal_anisotropy': 0.07, 'elastic_tensor_original': [[392.4943469343838, 102.07312771003387, 125.91438624954023, 0.0, 0.0, 0.0], [100.83607774576333, 391.53421967912885, 128.5133819964041, 0.0, 0.0, 0.0], [126.02016582914639, 126.02020126448393, 332.1177304081551, 0.0, 0.0, 0.0], [-0.005028280618448327, 0.004308386630435747, -0.004672651809214131, 145.2935049001374, 0.0, 0.0], [-0.05393711487983121, -0.22979625148677035, -0.4108377983014097, 0.0, 145.96363976783257, 0.0], [-0.00012206348098043357, 6.157674111337597e-05, 6.895675008631174e-05, 0.0, 0.0, 142.41591641630515]], 'compliance_tensor': [[3.0, -0.5, -1.0, 0.0, 0.0, -0.0], [-0.5, 3.0, -1.0, 0.0, 0.0, -0.0], [-1.0, -1.0, 3.7, -0.0, -0.0, 0.0], [0.0, 0.0, -0.0, 6.9, -0.0, -0.0], [0.0, 0.0, -0.0, -0.0, 6.9, 0.0], [-0.0, -0.0, 0.0, -0.0, -0.0, 7.0]], 'warnings': [], 'nsites': 12}",0,137,203,0.07,0.22,334.28
139,mp-996162,Nb2AlC,"{'Nb': 2.0, 'Al': 1.0, 'C': 1.0}",0.101818609,6.313226218,"{'G_Reuss': 112.0, 'G_VRH': 114.0, 'G_Voigt': 115.0, 'G_Voigt_Reuss_Hill': 114.0, 'K_Reuss': 173.0, 'K_VRH': 173.0, 'K_Voigt': 173.0, 'K_Voigt_Reuss_Hill': 173.0, 'elastic_anisotropy': 0.13, 'elastic_tensor': [[311.0, 93.0, 115.0, 0.0, 0.0, 0.0], [93.0, 311.0, 115.0, 0.0, 0.0, 0.0], [115.0, 115.0, 291.0, 0.0, 0.0, 0.0], [0.0, 0.0, 0.0, 135.0, 0.0, 0.0], [0.0, 0.0, 0.0, 0.0, 135.0, 0.0], [0.0, 0.0, 0.0, 0.0, 0.0, 109.0]], 'homogeneous_poisson': 0.23, 'poisson_ratio': 0.23, 'universal_anisotropy': 0.13, 'elastic_tensor_original': [[315.5659699464545, 89.24640011865243, 114.54889013772357, 0.0, 0.0, 0.0], [88.92725820837468, 315.52447440450277, 114.29150974907076, 0.0, 0.0, 0.0], [115.19183583872534, 115.19193684898097, 290.8752263713711, 0.0, 0.0, 0.0], [-0.014309820915959203, 0.014010569912924565, -0.012474436431800035, 134.8152769543375, 0.0, 0.0], [-0.0005024577472311983, 0.005740142034419038, 0.007137195181381807, 0.0, 135.30347369662837, 0.0], [0.00030538383495195507, 0.00011816352880229537, 0.00019739698962687973, 0.0, 0.0, 105.10263816749553]], 'compliance_tensor': [[3.9, -0.7, -1.3, -0.0, -0.0, 0.0], [-0.7, 3.9, -1.3, -0.0, -0.0, 0.0], [-1.3, -1.3, 4.4, 0.0, 0.0, -0.0], [-0.0, -0.0, 0.0, 7.4, 0.0, -0.0], [0.0, -0.0, 0.0, 0.0, 7.4, -0.0], [0.0, 0.0, -0.0, -0.0, -0.0, 9.2]], 'warnings': [], 'nsites': 8}",0,114,173,0.13,0.23,280.44