,mp_id,Formula,Composition,IPF,Density,Elastic_Tensor,E_above_Hull,G_VRH,K_VRH,Elastic_Anisotropy,poisson_ratio,Y_Modulus
64,mp-999376,NbPt,"{'Nb': 1.0, 'Pt': 1.0}",0.13530971,14.39648001,"{'G_Reuss': 114.0, 'G_VRH': 115.0, 'G_Voigt': 116.0, 'G_Voigt_Reuss_Hill': 115.0, 'K_Reuss': 222.0, 'K_VRH': 223.0, 'K_Voigt': 224.0, 'K_Voigt_Reuss_Hill': 223.0, 'elastic_anisotropy': 0.12, 'elastic_tensor': [[397.0, 135.0, 132.0, 0.0, 0.0, 0.0], [135.0, 372.0, 132.0, 0.0, 0.0, 0.0], [132.0, 132.0, 446.0, 0.0, 0.0, 0.0], [0.0, 0.0, 0.0, 103.0, 0.0, 0.0], [0.0, 0.0, 0.0, 0.0, 108.0, 0.0], [0.0, 0.0, 0.0, 0.0, 0.0, 99.0]], 'homogeneous_poisson': 0.28, 'poisson_ratio': 0.28, 'universal_anisotropy': 0.12, 'elastic_tensor_original': [[396.69806550262183, 137.064362554606, 149.3638412789625, 0.0, 0.0, 0.0], [132.2744903356996, 371.9612568272505, 143.47639387757602, 0.0, 0.0, 0.0], [114.66582077756799, 119.86220744721165, 446.3922416095651, 0.0, 0.0, 0.0], [0.0, 0.0, 0.0, 102.89070904879581, 0.0, 0.0], [0.0, 0.0, 0.0, 0.0, 108.15269524429003, 0.0], [0.0, 0.0, 0.0, 0.0, 0.0, 98.64693372971006]], 'compliance_tensor': [[3.0, -0.9, -0.6, 0.0, 0.0, 0.0], [-0.9, 3.3, -0.7, 0.0, 0.0, 0.0], [-0.6, -0.7, 2.6, 0.0, 0.0, 0.0], [0.0, 0.0, 0.0, 9.7, 0.0, 0.0], [0.0, 0.0, 0.0, 0.0, 9.2, 0.0], [0.0, 0.0, 0.0, 0.0, 0.0, 10.1]], 'warnings': [], 'nsites': 4}",0,115,223,0.12,0.28,294.4
65,mp-1025396,NbTl3Se4,"{'Nb': 1.0, 'Tl': 3.0, 'Se': 4.0}",0.187830432,6.44222176,"{'G_Reuss': 40.0, 'G_VRH': 41.0, 'G_Voigt': 41.0, 'G_Voigt_Reuss_Hill': 41.0, 'K_Reuss': 37.0, 'K_VRH': 37.0, 'K_Voigt': 37.0, 'K_Voigt_Reuss_Hill': 37.0, 'elastic_anisotropy': 0.15, 'elastic_tensor': [[104.0, 4.0, 4.0, 0.0, 0.0, 0.0], [4.0, 104.0, 4.0, 0.0, 0.0, 0.0], [4.0, 4.0, 104.0, 0.0, 0.0, 0.0], [0.0, 0.0, 0.0, 35.0, 0.0, 0.0], [0.0, 0.0, 0.0, 0.0, 35.0, 0.0], [0.0, 0.0, 0.0, 0.0, 0.0, 35.0]], 'homogeneous_poisson': 0.1, 'poisson_ratio': 0.1, 'universal_anisotropy': 0.15, 'elastic_tensor_original': [[103.83069506117073, 3.5227174542294417, 3.5227174542294417, 0.0, 0.0, 0.0], [3.5227174542294417, 103.83069506117073, 3.5227174542294417, 0.0, 0.0, 0.0], [3.5227174542294417, 3.5227174542294417, 103.83069506117073, 0.0, 0.0, 0.0], [0.0, 0.0, 0.0, 35.31984613990628, 0.0, 0.0], [0.0, 0.0, 0.0, 0.0, 35.31984613990628, 0.0], [0.0, 0.0, 0.0, 0.0, 0.0, 35.31984613990628]], 'compliance_tensor': [[9.7, -0.3, -0.3, 0.0, -0.0, 0.0], [-0.3, 9.7, -0.3, -0.0, -0.0, 0.0], [-0.3, -0.3, 9.7, -0.0, 0.0, -0.0], [0.0, -0.0, -0.0, 28.3, 0.0, -0.0], [-0.0, -0.0, 0.0, 0.0, 28.3, -0.0], [0.0, 0.0, -0.0, -0.0, -0.0, 28.3]], 'warnings': [], 'nsites': 8}",0,41,37,0.15,0.1,90.2
66,mp-1029832,Ca2NbN3,"{'Ca': 2.0, 'Nb': 1.0, 'N': 3.0}",0.186649607,3.731767685,"{'G_Reuss': -26.0, 'G_VRH': -1.0, 'G_Voigt': 23.0, 'G_Voigt_Reuss_Hill': -1.0, 'K_Reuss': 75.0, 'K_VRH': 79.0, 'K_Voigt': 84.0, 'K_Voigt_Reuss_Hill': 79.0, 'elastic_anisotropy': -9.38, 'elastic_tensor': [[194.0, 68.0, 44.0, 0.0, 0.0, 0.0], [68.0, 161.0, 32.0, 0.0, 0.0, 0.0], [44.0, 32.0, 107.0, 0.0, 0.0, 0.0], [0.0, 0.0, 0.0, -4.0, 0.0, 0.0], [0.0, 0.0, 0.0, 0.0, -35.0, 0.0], [0.0, 0.0, 0.0, 0.0, 0.0, 49.0]], 'homogeneous_poisson': 0.51, 'poisson_ratio': 0.51, 'universal_anisotropy': -9.38, 'elastic_tensor_original': [[106.61431526420489, 44.164719070485425, 32.92495734288023, 0.0, 0.0, 0.0], [44.20624695037009, 194.49851496488154, 67.8478456937341, 0.0, 0.0, 0.0], [32.04128842697324, 68.64937633865596, 160.58291181097283, 0.0, 0.0, 0.0], [-0.0009425426850890214, 0.0004743830070712391, 0.0015128722928387974, 48.929930594557185, 0.0, 0.0], [0.0021423019969936353, 0.032936396121344136, -0.05631426153851724, 0.0, -4.398048629884239, 0.0], [-0.0712981956622867, -0.05196538435132388, 0.07136958895123593, 0.0, 0.0, -35.249948769366185]], 'compliance_tensor': [[6.4, -2.3, -1.9, 0.0, -0.0, 0.0], [-2.3, 7.5, -1.3, 0.0, 0.0, 0.0], [-1.9, -1.3, 10.6, 0.0, -0.0, 0.0], [-0.0, -0.0, -0.0, -227.4, -0.0, -0.0], [-0.0, 0.0, -0.0, -0.0, -28.4, -0.0], [0.0, 0.0, 0.0, 0.0, 0.0, 20.4]], 'warnings': ['Elastic tensor has a negative eigenvalue', 'One or more K, G below 2 GPa'], 'nsites': 24}",0,-1,79,-9.38,0.51,-3.02
67,mp-10366,Nb2Co3Si,"{'Nb': 2.0, 'Co': 3.0, 'Si': 1.0}",0.14166842,8.371822234,"{'G_Reuss': 111.0, 'G_VRH': 113.0, 'G_Voigt': 116.0, 'G_Voigt_Reuss_Hill': 113.0, 'K_Reuss': 228.0, 'K_VRH': 228.0, 'K_Voigt': 228.0, 'K_Voigt_Reuss_Hill': 228.0, 'elastic_anisotropy': 0.21, 'elastic_tensor': [[410.0, 139.0, 139.0, 0.0, 0.0, 0.0], [139.0, 410.0, 139.0, 0.0, 0.0, 0.0], [139.0, 139.0, 395.0, 0.0, 0.0, 0.0], [0.0, 0.0, 0.0, 88.0, 0.0, 0.0], [0.0, 0.0, 0.0, 0.0, 88.0, 0.0], [0.0, 0.0, 0.0, 0.0, 0.0, 135.0]], 'homogeneous_poisson': 0.29, 'poisson_ratio': 0.29, 'universal_anisotropy': 0.21, 'elastic_tensor_original': [[409.7667763988919, 139.73274884683732, 144.317253266677, 0.0, 0.0, -2.3095905734461798e-05], [139.01516152662256, 408.5798601361444, 142.56029424736522, 0.0, 0.0, -4.8496794590379196e-05], [134.79626020962246, 134.79624301193294, 395.381175322202, 0.0, 0.0, -1.600049097446502e-05], [0.003687844140976546, 0.0039060715951739875, 0.00341339689445984, 88.4640854326298, -1.0500003535437765e-05, 0.0], [7.158672457818427e-05, -2.0266683049665775e-06, -0.00012271343260340274, 3.333336029877177e-08, 88.21765433144073, 0.0], [0.06943423501935955, 0.057017137024819434, 0.02725516469399058, 0.0, 0.0, 136.06291737797935]], 'compliance_tensor': [[3.0, -0.7, -0.8, 0.0, 0.0, 0.0], [-0.7, 3.0, -0.8, -0.0, -0.0, 0.0], [-0.8, -0.8, 3.1, -0.0, 0.0, -0.0], [0.0, -0.0, 0.0, 11.3, 0.0, 0.0], [-0.0, -0.0, 0.0, 0.0, 11.3, 0.0], [0.0, 0.0, -0.0, 0.0, 0.0, 7.4]], 'warnings': [], 'nsites': 12}",0,113,228,0.21,0.29,291.54
68,mp-10469,NbSiPt,"{'Nb': 1.0, 'Si': 1.0, 'Pt': 1.0}",0.110861026,11.28890695,"{'G_Reuss': 79.0, 'G_VRH': 81.0, 'G_Voigt': 82.0, 'G_Voigt_Reuss_Hill': 81.0, 'K_Reuss': 215.0, 'K_VRH': 215.0, 'K_Voigt': 215.0, 'K_Voigt_Reuss_Hill': 215.0, 'elastic_anisotropy': 0.17, 'elastic_tensor': [[301.0, 142.0, 180.0, 0.0, 0.0, 0.0], [142.0, 355.0, 170.0, 0.0, 0.0, 0.0], [180.0, 170.0, 296.0, 0.0, 0.0, 0.0], [0.0, 0.0, 0.0, 85.0, 0.0, 0.0], [0.0, 0.0, 0.0, 0.0, 84.0, 0.0], [0.0, 0.0, 0.0, 0.0, 0.0, 87.0]], 'homogeneous_poisson': 0.33, 'poisson_ratio': 0.33, 'universal_anisotropy': 0.17, 'elastic_tensor_original': [[296.01868074212064, 179.46843780951278, 169.6166611216064, 0.0, 0.0, 0.0], [180.97134949412145, 301.0639870800763, 141.04198492198964, 0.0, 0.0, 0.0], [171.36851397162482, 142.33933778118237, 355.3828441515759, 0.0, 0.0, 0.0], [0.0024063654249160634, -0.03394724283984194, -0.004010900152888737, 87.38411557316041, 0.0, 0.0], [-0.0006390928764512295, -0.00022134649033087373, -0.0008111163818325543, 0.0, 85.11784283236899, 0.0], [-6.035623160844149e-05, -0.000615772693761039, -0.000527502442994299, 0.0, 0.0, 83.60627544704312]], 'compliance_tensor': [[5.4, -0.8, -2.8, 0.0, 0.0, 0.0], [-0.8, 4.0, -1.8, 0.0, 0.0, 0.0], [-2.8, -1.8, 6.1, 0.0, -0.0, 0.0], [0.0, 0.0, 0.0, 11.7, 0.0, 0.0], [0.0, 0.0, -0.0, 0.0, 12.0, 0.0], [0.0, 0.0, 0.0, 0.0, 0.0, 11.4]], 'warnings': [], 'nsites': 12}",0,81,215,0.17,0.33,215.46
69,mp-10470,NbSiRh,"{'Nb': 1.0, 'Si': 1.0, 'Rh': 1.0}",0.104696072,8.279822034,"{'G_Reuss': 109.0, 'G_VRH': 112.0, 'G_Voigt': 115.0, 'G_Voigt_Reuss_Hill': 112.0, 'K_Reuss': 221.0, 'K_VRH': 221.0, 'K_Voigt': 222.0, 'K_Voigt_Reuss_Hill': 221.0, 'elastic_anisotropy': 0.28, 'elastic_tensor': [[342.0, 133.0, 177.0, 0.0, 0.0, 0.0], [133.0, 391.0, 163.0, 0.0, 0.0, 0.0], [177.0, 163.0, 315.0, 0.0, 0.0, 0.0], [0.0, 0.0, 0.0, 124.0, 0.0, 0.0], [0.0, 0.0, 0.0, 0.0, 142.0, 0.0], [0.0, 0.0, 0.0, 0.0, 0.0, 119.0]], 'homogeneous_poisson': 0.28, 'poisson_ratio': 0.28, 'universal_anisotropy': 0.28, 'elastic_tensor_original': [[315.15127591335687, 177.46406858648285, 162.38768037636098, 0.0, 0.0, 0.0], [176.7010719314085, 342.01551969560995, 132.86221550353773, 0.0, 0.0, 0.0], [162.79795135403788, 133.75048290012643, 391.04668855114534, 0.0, 0.0, 0.0], [4.962026594528151e-05, 3.190336707521961e-05, 3.825679356277152e-05, 118.854728852469, 0.0, 0.0], [3.571627959810238e-05, -0.0001811641237663097, 0.00022808636723189963, 0.0, 124.08644241769787, 0.0], [-0.00019632702832424512, -0.00032177661613873104, 0.0001294564859938262, 0.0, 0.0, 141.84511095358562]], 'compliance_tensor': [[4.2, -0.6, -2.1, 0.0, 0.0, 0.0], [-0.6, 3.3, -1.4, 0.0, 0.0, 0.0], [-2.1, -1.4, 5.1, 0.0, 0.0, 0.0], [0.0, 0.0, 0.0, 8.1, 0.0, 0.0], [0.0, 0.0, 0.0, 0.0, 7.0, 0.0], [0.0, 0.0, 0.0, 0.0, 0.0, 8.4]], 'warnings': [], 'nsites': 12}",0,112,221,0.28,0.28,286.72
70,mp-11537,NbAlRu2,"{'Nb': 1.0, 'Al': 1.0, 'Ru': 2.0}",0.100781187,8.956131445,"{'G_Reuss': 117.0, 'G_VRH': 117.0, 'G_Voigt': 117.0, 'G_Voigt_Reuss_Hill': 117.0, 'K_Reuss': 231.0, 'K_VRH': 231.0, 'K_Voigt': 231.0, 'K_Voigt_Reuss_Hill': 231.0, 'elastic_anisotropy': 0.01, 'elastic_tensor': [[395.0, 148.0, 148.0, 0.0, 0.0, 0.0], [148.0, 395.0, 148.0, 0.0, 0.0, 0.0], [148.0, 148.0, 395.0, 0.0, 0.0, 0.0], [0.0, 0.0, 0.0, 113.0, 0.0, 0.0], [0.0, 0.0, 0.0, 0.0, 113.0, 0.0], [0.0, 0.0, 0.0, 0.0, 0.0, 113.0]], 'homogeneous_poisson': 0.28, 'poisson_ratio': 0.28, 'universal_anisotropy': 0.01, 'elastic_tensor_original': [[395.02557461270834, 148.25968308696935, 148.25968308696935, 0.0, 0.0, 0.0], [148.26311869294764, 395.03047922328096, 148.26311869294764, 0.0, 0.0, 0.0], [148.2555607207482, 148.2555607207482, 395.0248949233012, 0.0, 0.0, 0.0], [-0.00011574347645533059, -0.00015479352474038842, -0.00020552025413433304, 112.59454313794846, 0.0, 0.0], [8.594677294453778e-05, 0.00022918695006648415, 3.81800472115537e-05, 0.0, 112.59457582132222, 0.0], [0.00030095037213781684, 0.0005425873375994142, 3.130003872731669e-06, 0.0, 0.0, 112.59479269159038]], 'compliance_tensor': [[3.2, -0.9, -0.9, -0.0, 0.0, -0.0], [-0.9, 3.2, -0.9, 0.0, -0.0, -0.0], [-0.9, -0.9, 3.2, 0.0, 0.0, 0.0], [-0.0, 0.0, 0.0, 8.9, -0.0, -0.0], [0.0, -0.0, 0.0, -0.0, 8.9, -0.0], [-0.0, -0.0, 0.0, -0.0, -0.0, 8.9]], 'warnings': [], 'nsites': 4}",0,117,231,0.01,0.28,299.52
71,mp-14827,Li7NbN4,"{'Li': 7.0, 'Nb': 1.0, 'N': 4.0}",0.232654576,2.737565184,"{'G_Reuss': 61.0, 'G_VRH': 64.0, 'G_Voigt': 68.0, 'G_Voigt_Reuss_Hill': 64.0, 'K_Reuss': 82.0, 'K_VRH': 82.0, 'K_Voigt': 82.0, 'K_Voigt_Reuss_Hill': 82.0, 'elastic_anisotropy': 0.54, 'elastic_tensor': [[209.0, 18.0, 18.0, 0.0, 0.0, 0.0], [18.0, 209.0, 18.0, 0.0, 0.0, 0.0], [18.0, 18.0, 209.0, 0.0, 0.0, 0.0], [0.0, 0.0, 0.0, 49.0, 0.0, 0.0], [0.0, 0.0, 0.0, 0.0, 49.0, 0.0], [0.0, 0.0, 0.0, 0.0, 0.0, 49.0]], 'homogeneous_poisson': 0.19, 'poisson_ratio': 0.19, 'universal_anisotropy': 0.54, 'elastic_tensor_original': [[208.72892682090924, 17.880780713537998, 17.94358289421636, 0.0, 0.0, 0.0], [17.94138671857108, 208.64296050133044, 17.873754811920225, 0.0, 0.0, 0.0], [17.879138503586006, 17.942330940815133, 208.72242966209964, 0.0, 0.0, 0.0], [0.0008916676722784706, 0.0008925710712645878, 0.0008938307177200815, 49.26432150363449, 0.0, 0.0], [-0.008771472009468208, -0.00899148117207926, -0.0076760285718785, 0.0, 49.242654875466194, 0.0], [0.0006771678810096485, 0.0005687976515225715, 0.0008877043187128142, 0.0, 0.0, 49.26452616041537]], 'compliance_tensor': [[4.9, -0.4, -0.4, 0.0, -0.0, 0.0], [-0.4, 4.9, -0.4, 0.0, 0.0, 0.0], [-0.4, -0.4, 4.9, 0.0, -0.0, 0.0], [0.0, 0.0, 0.0, 20.3, 0.0, 0.0], [-0.0, 0.0, -0.0, 0.0, 20.3, 0.0], [0.0, 0.0, 0.0, 0.0, 0.0, 20.3]], 'warnings': [], 'nsites': 96}",0,64,82,0.54,0.19,152.32
72,mp-17177,Nb2ZnO6,"{'Nb': 2.0, 'Zn': 1.0, 'O': 6.0}",0.538156933,5.373026239,"{'G_Reuss': 57.0, 'G_VRH': 57.0, 'G_Voigt': 58.0, 'G_Voigt_Reuss_Hill': 57.0, 'K_Reuss': 139.0, 'K_VRH': 141.0, 'K_Voigt': 142.0, 'K_Voigt_Reuss_Hill': 141.0, 'elastic_anisotropy': 0.17, 'elastic_tensor': [[186.0, 102.0, 94.0, 0.0, 0.0, 0.0], [102.0, 214.0, 120.0, 0.0, 0.0, 0.0], [94.0, 120.0, 251.0, 0.0, 0.0, 0.0], [0.0, 0.0, 0.0, 70.0, 0.0, 0.0], [0.0, 0.0, 0.0, 0.0, 62.0, 0.0], [0.0, 0.0, 0.0, 0.0, 0.0, 48.0]], 'homogeneous_poisson': 0.32, 'poisson_ratio': 0.32, 'universal_anisotropy': 0.17, 'elastic_tensor_original': [[250.74777252057373, 93.84419433599186, 120.04049634392577, -0.007572857261308645, 0.024656902767842295, 0.07127484022490825], [93.65320234679976, 185.84970210270146, 101.74944122323758, 0.0, 0.0, 0.0], [119.83844363765654, 101.46206598438577, 213.65522231876324, -0.005767314843070192, -0.013748130269983363, 0.02304200781714004], [0.08985074413756199, 0.021032371611336264, -0.030552194410724754, 47.623362306225495, 0.0, 0.0], [0.0019254545643332842, -0.017144460960939946, 0.017713017991101487, 0.0, 69.5386269546816, 0.0], [-0.038488148368120985, -0.02020146314013216, 0.02243339792523782, 0.0, 0.0, 62.28462297997844]], 'compliance_tensor': [[7.7, -2.8, -1.5, 0.0, 0.0, -0.0], [-2.8, 7.4, -2.5, 0.0, 0.0, 0.0], [-1.5, -2.5, 5.8, 0.0, 0.0, 0.0], [0.0, 0.0, 0.0, 14.4, 0.0, 0.0], [0.0, 0.0, 0.0, 0.0, 16.1, 0.0], [-0.0, 0.0, 0.0, 0.0, 0.0, 21.0]], 'warnings': [], 'nsites': 36}",0,57,141,0.17,0.32,150.48
73,mp-17701,Sr2NbN3,"{'Sr': 2.0, 'Nb': 1.0, 'N': 3.0}",0.226977014,4.729103908,"{'G_Reuss': 36.0, 'G_VRH': 38.0, 'G_Voigt': 39.0, 'G_Voigt_Reuss_Hill': 38.0, 'K_Reuss': 70.0, 'K_VRH': 71.0, 'K_Voigt': 72.0, 'K_Voigt_Reuss_Hill': 71.0, 'elastic_anisotropy': 0.35, 'elastic_tensor': [[131.0, 47.0, 40.0, 0.0, -2.0, 0.0], [47.0, 148.0, 39.0, 0.0, 13.0, 0.0], [40.0, 39.0, 119.0, 0.0, 11.0, 0.0], [0.0, 0.0, 0.0, 29.0, 0.0, 5.0], [-2.0, 13.0, 11.0, 0.0, 37.0, 0.0], [0.0, 0.0, 0.0, 5.0, 0.0, 37.0]], 'homogeneous_poisson': 0.28, 'poisson_ratio': 0.28, 'universal_anisotropy': 0.35, 'elastic_tensor_original': [[147.6044972242824, 38.970320128943364, 47.16781161476636, 12.614980725907186, 0.0, 0.0], [39.18992814775892, 119.39447536659611, 40.55563496560006, 10.654097632528256, 0.0, 0.0], [47.05341958662213, 40.05923642824456, 131.1979763457145, -2.0988037675673774, 0.0, 0.0], [12.970851888279672, 10.471530092554337, -2.218344932629378, 36.876751820324635, 0.0, 0.0], [-0.0439801534269863, -0.03262153652356687, -0.05765413653033789, -0.0021018943342455414, 37.05774818287137, 5.288390103713601], [0.06481717851040555, 0.10992289474331046, 0.032297914092688264, 0.0407093764440182, 5.3890033131731725, 28.961157209685418]], 'compliance_tensor': [[9.3, -2.5, -2.5, 0.0, 2.1, 0.0], [-2.5, 8.2, -1.6, 0.0, -2.5, 0.0], [-2.5, -1.6, 10.0, 0.0, -2.4, 0.0], [0.0, 0.0, 0.0, 35.5, 0.0, -5.1], [2.1, -2.5, -2.4, 0.0, 28.8, 0.0], [0.0, 0.0, 0.0, -5.1, 0.0, 27.7]], 'warnings': [], 'nsites': 24}",0,38,71,0.35,0.28,97.28
74,mp-21907,NbSiAs,"{'Nb': 1.0, 'Si': 1.0, 'As': 1.0}",0.084685916,6.601363588,"{'G_Reuss': 103.0, 'G_VRH': 104.0, 'G_Voigt': 105.0, 'G_Voigt_Reuss_Hill': 104.0, 'K_Reuss': 153.0, 'K_VRH': 153.0, 'K_Voigt': 153.0, 'K_Voigt_Reuss_Hill': 153.0, 'elastic_anisotropy': 0.14, 'elastic_tensor': [[283.0, 92.0, 80.0, 0.0, 0.0, 0.0], [92.0, 283.0, 80.0, 0.0, 0.0, 0.0], [80.0, 80.0, 309.0, 0.0, 0.0, 0.0], [0.0, 0.0, 0.0, 90.0, 0.0, 0.0], [0.0, 0.0, 0.0, 0.0, 90.0, 0.0], [0.0, 0.0, 0.0, 0.0, 0.0, 139.0]], 'homogeneous_poisson': 0.22, 'poisson_ratio': 0.22, 'universal_anisotropy': 0.14, 'elastic_tensor_original': [[282.788704284136, 91.88187117542752, 79.12316471083052, 0.0, 0.0, 0.0], [91.8814218195576, 282.78744929726975, 79.12286540345255, 0.0, 0.0, 0.0], [80.2591978582406, 80.2591978582406, 309.45973442413543, 0.0, 0.0, 0.0], [-1.6130002391124845e-05, -3.5850030927341726e-05, -3.3393342023394094e-05, 90.32103442246405, 0.0, 0.0], [-4.5633355311725065e-05, 7.872995548571522e-05, 3.4216614672419096e-05, 0.0, 90.32120574229978, 0.0], [-3.790675736750359e-05, -5.968110954110665e-07, -9.378997599073828e-05, 0.0, 0.0, 138.84113467903356]], 'compliance_tensor': [[4.1, -1.1, -0.8, 0.0, 0.0, -0.0], [-1.1, 4.1, -0.8, 0.0, -0.0, 0.0], [-0.8, -0.8, 3.6, 0.0, -0.0, 0.0], [0.0, 0.0, 0.0, 11.1, 0.0, 0.0], [0.0, -0.0, -0.0, 0.0, 11.1, -0.0], [-0.0, 0.0, 0.0, 0.0, -0.0, 7.2]], 'warnings': [], 'nsites': 6}",0,104,153,0.14,0.22,253.76
75,mp-22287,NbGeIr,"{'Nb': 1.0, 'Ge': 1.0, 'Ir': 1.0}",0.127296601,12.40314113,"{'G_Reuss': 92.0, 'G_VRH': 93.0, 'G_Voigt': 95.0, 'G_Voigt_Reuss_Hill': 93.0, 'K_Reuss': 223.0, 'K_VRH': 224.0, 'K_Voigt': 225.0, 'K_Voigt_Reuss_Hill': 224.0, 'elastic_anisotropy': 0.21, 'elastic_tensor': [[316.0, 149.0, 177.0, 0.0, 0.0, 0.0], [149.0, 401.0, 174.0, 0.0, 0.0, 0.0], [177.0, 174.0, 307.0, 0.0, 0.0, 0.0], [0.0, 0.0, 0.0, 87.0, 0.0, 0.0], [0.0, 0.0, 0.0, 0.0, 110.0, 0.0], [0.0, 0.0, 0.0, 0.0, 0.0, 104.0]], 'homogeneous_poisson': 0.32, 'poisson_ratio': 0.32, 'universal_anisotropy': 0.21, 'elastic_tensor_original': [[306.79393015030087, 177.19172308567002, 173.44295819483392, 0.0, 0.0, 0.0], [176.31431220823424, 315.73152961935585, 150.10272087836, 0.0, 0.0, 0.0], [173.58012426025633, 148.13932552056076, 401.05849426984753, 0.0, 0.0, 0.0], [-0.0004631466749259526, 0.0038937067676145776, 0.0008783500538679986, 104.21212859176849, 0.0, 0.0], [7.732659345444594e-05, 4.4193280004914954e-05, -3.927990774068724e-05, 0.0, 87.0156694362628, 0.0], [-0.005913448250683289, -0.03895646221926627, -0.007540116915469715, 0.0, 0.0, 110.38695244057732]], 'compliance_tensor': [[4.9, -0.8, -2.4, 0.0, 0.0, 0.0], [-0.8, 3.4, -1.5, 0.0, -0.0, 0.0], [-2.4, -1.5, 5.5, 0.0, -0.0, 0.0], [0.0, 0.0, 0.0, 11.5, 0.0, 0.0], [0.0, -0.0, -0.0, 0.0, 9.1, 0.0], [0.0, 0.0, 0.0, 0.0, 0.0, 9.6]], 'warnings': [], 'nsites': 12}",0,93,224,0.21,0.32,245.52
76,mp-23051,NbSeI,"{'Nb': 1.0, 'Se': 1.0, 'I': 1.0}",0.186624855,6.045157061,"{'G_Reuss': -47.0, 'G_VRH': -20.0, 'G_Voigt': 6.0, 'G_Voigt_Reuss_Hill': -20.0, 'K_Reuss': 42.0, 'K_VRH': 42.0, 'K_Voigt': 42.0, 'K_Voigt_Reuss_Hill': 42.0, 'elastic_anisotropy': -5.68, 'elastic_tensor': [[33.0, 46.0, 46.0, 0.0, 0.0, 0.0], [46.0, 33.0, 46.0, 0.0, 0.0, 0.0], [46.0, 46.0, 33.0, 0.0, 0.0, 0.0], [0.0, 0.0, 0.0, 15.0, 0.0, 0.0], [0.0, 0.0, 0.0, 0.0, 15.0, 0.0], [0.0, 0.0, 0.0, 0.0, 0.0, 15.0]], 'homogeneous_poisson': 0.79, 'poisson_ratio': 0.79, 'universal_anisotropy': -5.68, 'elastic_tensor_original': [[33.34713722302667, 48.592909585326765, 48.59485667549084, 0.005261706810269692, 0.01433703327360556, -0.02868960525382987], [39.84349955656077, 33.00917878465241, 42.95870170384435, 8.207696069060747, 0.16885969125098782, -4.245401169374965], [48.10224777904795, 48.102352098906685, 32.72122611524099, 0.016862624472613382, -0.03397749729099517, -0.0007869402530056591], [-0.0003600001092126321, -0.0006716927017045799, -0.0008721393179274501, 14.929408528257575, 0.0, 0.0], [-0.10540328418333118, -0.07849523663800986, -0.0716310821411319, 0.0, 14.924089678314607, 0.0], [0.0175450754311781, 0.00879394090968053, -0.00974741545610663, 0.0, 0.0, 14.92763722665588]], 'compliance_tensor': [[-48.6, 28.3, 28.3, -0.0, 0.0, -0.0], [28.3, -48.6, 28.3, -0.0, -0.0, 0.0], [28.3, 28.3, -48.6, 0.0, -0.0, -0.0], [-0.0, -0.0, 0.0, 67.0, 0.0, 0.0], [0.0, -0.0, -0.0, 0.0, 67.0, 0.0], [-0.0, 0.0, -0.0, 0.0, 0.0, 67.0]], 'warnings': ['Elastic tensor has a negative eigenvalue', 'c11 and c12 are within 5% or c12 is greater than c11', 'c11 and c13 are within 5% or c13 is greater than c11', 'c11 and c23 are within 5% or c23 is greater than c11', 'One or more K, G below 2 GPa'], 'nsites': 12}",0,-20,42,-5.68,0.79,-71.6