,mp_id,Formula,Composition,IPF,Density,Elastic_Tensor,E_above_Hull,G_VRH,K_VRH,Elastic_Anisotropy,poisson_ratio,Y_Modulus
152,mp-38818,HfNbB4,"{'Hf': 1.0, 'Nb': 1.0, 'B': 4.0}",0.10436339,9.032454708,"{'G_Reuss': 215.0, 'G_VRH': 219.0, 'G_Voigt': 223.0, 'G_Voigt_Reuss_Hill': 219.0, 'K_Reuss': 268.0, 'K_VRH': 269.0, 'K_Voigt': 271.0, 'K_Voigt_Reuss_Hill': 269.0, 'elastic_anisotropy': 0.2, 'elastic_tensor': [[595.0, 160.0, 94.0, 0.0, 0.0, 0.0], [160.0, 429.0, 157.0, 0.0, 0.0, 0.0], [94.0, 157.0, 591.0, 0.0, 0.0, 0.0], [0.0, 0.0, 0.0, 236.0, 0.0, 0.0], [0.0, 0.0, 0.0, 0.0, 239.0, 0.0], [0.0, 0.0, 0.0, 0.0, 0.0, 240.0]], 'homogeneous_poisson': 0.18, 'poisson_ratio': 0.18, 'universal_anisotropy': 0.2, 'elastic_tensor_original': [[590.7265715697935, 93.55968368074173, 155.6043562412471, 0.0, 0.0, 0.0], [94.45179041697395, 594.7765531644754, 158.38612295798168, 0.0, 0.0, 0.0], [158.67462041691985, 160.84414813030085, 429.2211948118372, 0.0, 0.0, 0.0], [-2.0846585186652e-05, 3.362995901011619e-05, 3.5973203674353536e-05, 239.89713924719067, 0.0, 0.0], [0.005871530843897676, -0.006693846695077413, -0.014805765317196271, 0.2398557021362421, 236.36487766140942, 0.1555750890502582], [-2.756330761850775e-05, -9.166658110250812e-07, -1.2659988191367636e-05, 0.0, 0.0, 238.71761449121897]], 'compliance_tensor': [[1.9, -0.7, -0.1, 0.0, 0.0, 0.0], [-0.7, 2.8, -0.6, 0.0, -0.0, 0.0], [-0.1, -0.6, 1.9, 0.0, -0.0, 0.0], [0.0, 0.0, 0.0, 4.2, 0.0, -0.0], [0.0, -0.0, -0.0, 0.0, 4.2, 0.0], [0.0, 0.0, 0.0, -0.0, 0.0, 4.2]], 'warnings': [], 'nsites': 6}",0,219,269,0.2,0.18,516.84
153,mp-4500,ZrNbP,"{'Zr': 1.0, 'Nb': 1.0, 'P': 1.0}",0.109448315,6.893886775,"{'G_Reuss': 97.0, 'G_VRH': 99.0, 'G_Voigt': 102.0, 'G_Voigt_Reuss_Hill': 99.0, 'K_Reuss': 174.0, 'K_VRH': 174.0, 'K_Voigt': 174.0, 'K_Voigt_Reuss_Hill': 174.0, 'elastic_anisotropy': 0.28, 'elastic_tensor': [[299.0, 85.0, 139.0, 0.0, 0.0, 0.0], [85.0, 320.0, 114.0, 0.0, 0.0, 0.0], [139.0, 114.0, 270.0, 0.0, 0.0, 0.0], [0.0, 0.0, 0.0, 117.0, 0.0, 0.0], [0.0, 0.0, 0.0, 0.0, 126.0, 0.0], [0.0, 0.0, 0.0, 0.0, 0.0, 82.0]], 'homogeneous_poisson': 0.26, 'poisson_ratio': 0.26, 'universal_anisotropy': 0.28, 'elastic_tensor_original': [[269.8338312437677, 138.38478788096566, 114.369970702138, 0.0, 0.0, 0.0], [139.6674816154531, 298.77920618867915, 84.23659847361563, 0.0, 0.0, 0.0], [113.43801057881213, 85.05449551511511, 319.966580948475, 0.0, 0.0, 0.0], [-0.00010950005471438239, 0.0003664534183614354, -0.0004615665289339605, 82.42639176653479, 0.0, 0.0], [-0.000585522867845595, 0.004603532914836534, 0.002941795481473682, 0.0, 117.48507244724229, 0.0], [-0.00801315119863734, -0.009212629729083212, -0.0029844888866986004, 0.0, 0.0, 126.15281113867722]], 'compliance_tensor': [[4.5, -0.4, -2.1, 0.0, -0.0, 0.0], [-0.4, 3.7, -1.4, 0.0, -0.0, 0.0], [-2.1, -1.4, 5.4, 0.0, 0.0, 0.0], [0.0, 0.0, 0.0, 8.5, 0.0, 0.0], [-0.0, -0.0, 0.0, 0.0, 7.9, 0.0], [0.0, 0.0, 0.0, 0.0, 0.0, 12.1]], 'warnings': [], 'nsites': 12}",0,99,174,0.28,0.26,249.48
154,mp-4813,NbAlNi2,"{'Nb': 1.0, 'Al': 1.0, 'Ni': 2.0}",0.129781473,7.312634988,"{'G_Reuss': 34.0, 'G_VRH': 45.0, 'G_Voigt': 56.0, 'G_Voigt_Reuss_Hill': 45.0, 'K_Reuss': 181.0, 'K_VRH': 181.0, 'K_Voigt': 181.0, 'K_Voigt_Reuss_Hill': 181.0, 'elastic_anisotropy': 3.21, 'elastic_tensor': [[205.0, 168.0, 168.0, 0.0, 0.0, 0.0], [168.0, 205.0, 168.0, 0.0, 0.0, 0.0], [168.0, 168.0, 205.0, 0.0, 0.0, 0.0], [0.0, 0.0, 0.0, 81.0, 0.0, 0.0], [0.0, 0.0, 0.0, 0.0, 81.0, 0.0], [0.0, 0.0, 0.0, 0.0, 0.0, 81.0]], 'homogeneous_poisson': 0.39, 'poisson_ratio': 0.39, 'universal_anisotropy': 3.21, 'elastic_tensor_original': [[204.96671676660893, 168.66303149075677, 168.66303149075677, 0.0, 0.0, 0.0], [168.41730839601001, 204.72434256262991, 168.41730839601001, 0.0, 0.0, 0.0], [168.31991038194573, 168.31991038194573, 204.62780168131667, 0.0, 0.0, 0.0], [0.0014349420034375044, 0.0014183586854723596, 0.0014526519870223977, 80.72165254089327, 0.0, 0.0], [2.116331371949628e-05, 6.018661088714563e-05, -1.53133191410193e-05, 0.0, 80.72150213103268, 0.0], [0.0024053144374345066, 0.002451751061062009, 0.00247501437283525, 0.0, 0.0, 80.72184490404833]], 'compliance_tensor': [[19.0, -8.6, -8.6, 0.0, 0.0, -0.0], [-8.6, 19.0, -8.6, -0.0, 0.0, 0.0], [-8.6, -8.6, 19.0, 0.0, -0.0, 0.0], [0.0, -0.0, 0.0, 12.4, -0.0, -0.0], [0.0, 0.0, -0.0, -0.0, 12.4, -0.0], [-0.0, 0.0, 0.0, -0.0, -0.0, 12.4]], 'warnings': [], 'nsites': 4}",0,45,181,3.21,0.39,125.1
155,mp-540924,NbTeI3,"{'Nb': 1.0, 'Te': 1.0, 'I': 3.0}",0.187893153,5.026952627,"{'G_Reuss': -2.0, 'G_VRH': 1.0, 'G_Voigt': 4.0, 'G_Voigt_Reuss_Hill': 1.0, 'K_Reuss': 4.0, 'K_VRH': 6.0, 'K_Voigt': 8.0, 'K_Voigt_Reuss_Hill': 6.0, 'elastic_anisotropy': -12.87, 'elastic_tensor': [[38.0, 2.0, 4.0, 0.0, 4.0, 0.0], [2.0, 4.0, 1.0, 0.0, -0.0, 0.0], [4.0, 1.0, 14.0, 0.0, 0.0, 0.0], [0.0, 0.0, 0.0, 0.0, 0.0, -0.0], [4.0, -0.0, 0.0, 0.0, 4.0, 0.0], [0.0, 0.0, 0.0, -0.0, 0.0, -0.0]], 'homogeneous_poisson': 0.43, 'poisson_ratio': 0.43, 'universal_anisotropy': -12.87, 'elastic_tensor_original': [[4.418227795208957, 0.85861405757601, 2.184346253149567, 0.10412876082270364, 0.0, 0.0], [1.9233418270639666, 14.125910345687984, 5.124648542184274, 0.14361359785222144, 0.0, 0.0], [1.6578036499350406, 4.197100377397511, 37.517556990819784, 5.019057134791784, 0.0, 0.0], [-0.3011781179947119, 0.2985732686276285, 4.67157588530703, 4.5091178697054595, 0.0, 0.0], [-0.019128233010918917, -0.04827377842897036, 0.07705461853747182, 0.034545357662352345, -0.17624047053359934, -0.12045326373447841], [0.0028701851868357824, -0.016497633146919773, -0.032191108173943966, 0.013465997668320174, 0.019967750515236905, 0.3817562879126631]], 'compliance_tensor': [[31.7, -11.9, -8.4, 0.0, -31.7, 0.0], [-11.9, 238.3, -20.1, 0.0, 19.0, 0.0], [-8.4, -20.1, 75.5, 0.0, 3.8, 0.0], [0.0, 0.0, 0.0, 2549.8, 0.0, -563.2], [-31.7, 19.0, 3.8, 0.0, 262.8, 0.0], [-0.0, -0.0, -0.0, -563.2, -0.0, -5493.9]], 'warnings': ['Elastic tensor has a negative eigenvalue', 'One or more K, G below 2 GPa'], 'nsites': 20}",0,1,6,-12.87,0.43,2.86
156,mp-550070,NbBr2O,"{'Nb': 1.0, 'Br': 2.0, 'O': 1.0}",0.164098556,4.452127603,"{'G_Reuss': 7.0, 'G_VRH': 12.0, 'G_Voigt': 17.0, 'G_Voigt_Reuss_Hill': 12.0, 'K_Reuss': -2.0, 'K_VRH': 11.0, 'K_Voigt': 23.0, 'K_Voigt_Reuss_Hill': 11.0, 'elastic_anisotropy': -9.7, 'elastic_tensor': [[-1.0, -1.0, -1.0, 0.0, -1.0, 0.0], [-1.0, 118.0, 7.0, 0.0, 1.0, 0.0], [-1.0, 7.0, 82.0, 0.0, 1.0, 0.0], [0.0, 0.0, 0.0, 19.0, 0.0, 0.0], [-1.0, 1.0, 1.0, 0.0, 2.0, 0.0], [0.0, 0.0, 0.0, 0.0, 0.0, 1.0]], 'homogeneous_poisson': 0.09, 'poisson_ratio': 0.09, 'universal_anisotropy': -9.7, 'elastic_tensor_original': [[117.74524578814457, -0.6825171943862152, 7.424642778359234, 1.2229947199711837, -0.00019689101418666775, -0.07753145840304897], [-1.6364604180147635, -0.1205287248373513, 3.101159227967255, 3.241660680883488, 0.003616487595013471, -0.010521835428577946], [7.016621904352953, 2.622439665356129, 72.65545799301874, 17.039375665533598, 0.01137343387420898, -0.08937067489830963], [1.6252532604326093, 1.462425074488546, 18.04745117751541, 5.668068776456189, 0.007774837158719266, -0.00832760230313573], [0.0025547666208949405, -0.047937199928389046, -0.01842051896912418, 0.0064534881308520005, 17.80083103209791, 3.388300551740584], [-0.05032118391221847, -0.00886922443103545, -0.016746146897678043, -0.027958344763106772, 4.391296835273909, 1.9614869440101952]], 'compliance_tensor': [[-655.4, -5.8, -5.1, -0.0, -181.6, -0.0], [-5.8, 8.5, -0.8, 0.0, -5.0, 0.0], [-5.1, -0.8, 12.4, 0.0, -7.9, 0.0], [0.0, 0.0, 0.0, 54.2, 0.0, -24.8], [-181.6, -5.0, -7.9, 0.0, 501.6, 0.0], [0.0, 0.0, 0.0, -24.8, 0.0, 944.7]], 'warnings': ['Elastic tensor has a negative eigenvalue', 'c11 and c12 are within 5% or c12 is greater than c11', 'c11 and c13 are within 5% or c13 is greater than c11', 'c11 and c23 are within 5% or c23 is greater than c11', 'One or more K, G below 2 GPa'], 'nsites': 8}",0,12,11,-9.7,0.09,26.16
157,mp-606393,NbBr3O,"{'Nb': 1.0, 'Br': 3.0, 'O': 1.0}",0.135678751,4.064234461,"{'G_Reuss': 2.0, 'G_VRH': 4.0, 'G_Voigt': 6.0, 'G_Voigt_Reuss_Hill': 4.0, 'K_Reuss': 5.0, 'K_VRH': 8.0, 'K_Voigt': 10.0, 'K_Voigt_Reuss_Hill': 8.0, 'elastic_anisotropy': 8.77, 'elastic_tensor': [[60.0, 3.0, 3.0, 0.0, 0.0, 0.0], [3.0, 7.0, 3.0, 0.0, 0.0, 0.0], [3.0, 3.0, 7.0, 0.0, 0.0, 0.0], [0.0, 0.0, 0.0, 3.0, 0.0, 0.0], [0.0, 0.0, 0.0, 0.0, 1.0, 0.0], [0.0, 0.0, 0.0, 0.0, 0.0, 1.0]], 'homogeneous_poisson': 0.28, 'poisson_ratio': 0.28, 'universal_anisotropy': 8.77, 'elastic_tensor_original': [[7.248473642282249, 3.3235140595575103, 3.048758146807757, 0.0, 0.0, 0.0], [2.4984126981954176, 7.009674970929102, 3.7605290149288195, 0.0, 0.0, 0.0], [3.102716354894477, 3.102716354894477, 60.282665574798294, 0.0, 0.0, 0.0], [-0.06290621848785447, 0.061582124484727205, 0.10384529253026882, 1.5310260311380635, 0.0, 0.0], [0.10811234468876274, 0.1691408188934245, 0.0561349083959124, 0.0, 1.343262252824193, 0.0], [0.020075558935309382, 0.01989585885532789, 0.013888716181644854, 0.0, 0.0, 3.4898711466189996]], 'compliance_tensor': [[17.2, -5.6, -5.6, 0.0, 0.0, -0.0], [-5.6, 170.1, -66.9, 0.0, 0.0, 0.0], [-5.6, -66.9, 170.1, 0.0, 0.0, -0.0], [0.0, 0.0, 0.0, 286.5, 0.0, 0.0], [0.0, 0.0, 0.0, 0.0, 695.8, 0.0], [-0.0, 0.0, -0.0, 0.0, 0.0, 695.8]], 'warnings': [], 'nsites': 20}",0,4,8,8.77,0.28,10.24
158,mp-7375,KNbO3,"{'K': 1.0, 'Nb': 1.0, 'O': 3.0}",0.616168746,4.368736534,"{'G_Reuss': 29.0, 'G_VRH': 41.0, 'G_Voigt': 52.0, 'G_Voigt_Reuss_Hill': 41.0, 'K_Reuss': 102.0, 'K_VRH': 103.0, 'K_Voigt': 103.0, 'K_Voigt_Reuss_Hill': 103.0, 'elastic_anisotropy': 4.1, 'elastic_tensor': [[196.0, 73.0, 49.0, -28.0, 0.0, 0.0], [73.0, 196.0, 49.0, 28.0, 0.0, 0.0], [49.0, 49.0, 191.0, 0.0, 0.0, 0.0], [-28.0, 28.0, 0.0, 32.0, 0.0, 0.0], [0.0, 0.0, 0.0, 0.0, 32.0, -28.0], [0.0, 0.0, 0.0, 0.0, -28.0, 61.0]], 'homogeneous_poisson': 0.33, 'poisson_ratio': 0.33, 'universal_anisotropy': 4.1, 'elastic_tensor_original': [[195.6654812522492, 73.12624409606288, 48.742868708929265, 31.55402430482363, 0.0, 0.0], [73.66685721196632, 196.10165862911163, 49.052051508119746, -31.577963657851537, 0.0, 0.0], [49.37827242424715, 49.378285662484636, 190.60941131887841, 0.0, 0.0, 0.0], [27.814728337654444, -21.796928688927153, 0.5823374700306131, 32.290065647276634, 0.0, 0.0], [-0.007633828802818872, -0.006064554252324537, -0.0036961673846070977, -0.018854921341124375, 31.348598759599245, 24.824782068863136], [-0.0013907050366642761, -0.0005338366990450755, -0.0014134673808660868, 0.0008065140009084434, 31.131538560027177, 61.32275961009903]], 'compliance_tensor': [[8.9, -4.8, -1.1, 12.1, 0.0, -0.0], [-4.8, 8.9, -1.1, -12.1, -0.0, -0.0], [-1.1, -1.1, 5.8, -0.0, 0.0, 0.0], [12.1, -12.1, -0.0, 52.8, -0.0, -0.0], [0.0, -0.0, -0.0, -0.0, 52.8, 24.2], [-0.0, -0.0, 0.0, -0.0, 24.2, 27.4]], 'warnings': [], 'nsites': 5}",0,41,103,4.1,0.33,109.06
159,mp-752467,NbO2F,"{'Nb': 1.0, 'O': 2.0, 'F': 1.0}",0.342496129,3.985365439,"{'G_Reuss': 46.0, 'G_VRH': 53.0, 'G_Voigt': 61.0, 'G_Voigt_Reuss_Hill': 53.0, 'K_Reuss': 100.0, 'K_VRH': 101.0, 'K_Voigt': 103.0, 'K_Voigt_Reuss_Hill': 101.0, 'elastic_anisotropy': 1.64, 'elastic_tensor': [[166.0, 44.0, 59.0, 0.0, 3.0, 0.0], [44.0, 172.0, 107.0, 0.0, 10.0, 0.0], [59.0, 107.0, 170.0, 0.0, 10.0, 0.0], [0.0, 0.0, 0.0, 129.0, 0.0, -1.0], [3.0, 10.0, 10.0, 0.0, 36.0, 0.0], [0.0, 0.0, 0.0, -1.0, 0.0, 38.0]], 'homogeneous_poisson': 0.28, 'poisson_ratio': 0.28, 'universal_anisotropy': 1.64, 'elastic_tensor_original': [[172.32603115647953, 52.01987672919523, 89.23054450327078, 39.97467603335741, 0.0, 0.0], [60.76610166864164, 140.36411338870138, 73.50317968652271, -9.494526303975489, 0.0, 0.0], [100.76119793801611, 74.20363352511448, 166.05424743431888, 14.733532817958048, 0.0, 0.0], [13.373055423959507, -8.353482099346074, -0.8773498071036635, 50.86242426028166, 0.0, 0.0], [0.19904719686691638, 0.3731375730771914, 0.4154975930049986, -0.08818516633259303, 96.46682421258839, 43.59560080926216], [-0.0709539069337031, -0.02958042916288667, 0.0028407685276507963, -0.06910368293610239, 43.54503914072913, 70.75173799577045]], 'compliance_tensor': [[6.9, -0.5, -2.1, 0.0, 0.1, 0.0], [-0.5, 9.6, -5.8, 0.0, -1.2, 0.0], [-2.1, -5.8, 10.3, 0.0, -0.9, 0.0], [0.0, 0.0, 0.0, 7.8, 0.0, 0.2], [0.1, -1.2, -0.9, 0.0, 28.2, 0.0], [0.0, 0.0, 0.0, 0.2, 0.0, 26.2]], 'warnings': [], 'nsites': 8}",0,53,101,1.64,0.28,135.68
160,mp-7601,NbGaO4,"{'Nb': 1.0, 'Ga': 1.0, 'O': 4.0}",0.482332651,4.819142822,"{'G_Reuss': 58.0, 'G_VRH': 59.0, 'G_Voigt': 61.0, 'G_Voigt_Reuss_Hill': 59.0, 'K_Reuss': 163.0, 'K_VRH': 163.0, 'K_Voigt': 164.0, 'K_Voigt_Reuss_Hill': 163.0, 'elastic_anisotropy': 0.29, 'elastic_tensor': [[228.0, 124.0, 120.0, 0.0, -3.0, 0.0], [124.0, 284.0, 106.0, 0.0, -16.0, 0.0], [120.0, 106.0, 262.0, 0.0, 16.0, 0.0], [0.0, 0.0, 0.0, 53.0, 0.0, -4.0], [-3.0, -16.0, 16.0, 0.0, 61.0, 0.0], [0.0, 0.0, 0.0, -4.0, 0.0, 50.0]], 'homogeneous_poisson': 0.34, 'poisson_ratio': 0.34, 'universal_anisotropy': 0.29, 'elastic_tensor_original': [[283.7239210850935, 131.4523786595657, 98.2665587191245, 8.127489829789768, 0.0, 0.0], [131.69368186356917, 232.31574053140812, 111.54059241616488, 2.205277360544826, 0.0, 0.0], [97.02434531683805, 111.59347135102387, 275.62804447735624, -2.046420078825061, 0.0, 0.0], [7.851832064766334, 1.829406053837386, -3.2577886573803734, 52.44056591995265, 0.0, 0.0], [-0.0008791644948493519, -0.014567889246500938, 0.024731309340666377, 0.00622348822221923, 50.201207957124254, 4.398185764037198], [-0.007928257707829857, -0.00919122613334947, -0.013238175102601196, -0.0011894449897951582, 4.154390645546187, 52.774636042425826]], 'compliance_tensor': [[6.7, -2.1, -2.3, 0.0, 0.4, 0.0], [-2.1, 4.9, -1.1, 0.0, 1.5, 0.0], [-2.3, -1.1, 5.4, 0.0, -1.9, 0.0], [0.0, 0.0, 0.0, 19.0, 0.0, 1.6], [0.4, 1.5, -1.9, 0.0, 17.3, 0.0], [0.0, 0.0, 0.0, 1.6, 0.0, 20.1]], 'warnings': [], 'nsites': 12}",0,59,163,0.29,0.34,158.12
161,mp-864631,LiNbRh2,"{'Li': 1.0, 'Nb': 1.0, 'Rh': 2.0}",0.151148252,8.690848168,"{'G_Reuss': 64.0, 'G_VRH': 65.0, 'G_Voigt': 66.0, 'G_Voigt_Reuss_Hill': 65.0, 'K_Reuss': 175.0, 'K_VRH': 175.0, 'K_Voigt': 175.0, 'K_Voigt_Reuss_Hill': 175.0, 'elastic_anisotropy': 0.11, 'elastic_tensor': [[247.0, 138.0, 138.0, 0.0, 0.0, 0.0], [138.0, 247.0, 138.0, 0.0, 0.0, 0.0], [138.0, 138.0, 247.0, 0.0, 0.0, 0.0], [0.0, 0.0, 0.0, 74.0, 0.0, 0.0], [0.0, 0.0, 0.0, 0.0, 74.0, 0.0], [0.0, 0.0, 0.0, 0.0, 0.0, 74.0]], 'homogeneous_poisson': 0.33, 'poisson_ratio': 0.33, 'universal_anisotropy': 0.11, 'elastic_tensor_original': [[247.28273342719643, 138.46921158128094, 138.46921158128094, 0.0, 0.0, 0.0], [138.44134381689963, 247.25685223146704, 138.44134381689963, 0.0, 0.0, 0.0], [138.46655706784833, 138.46655706784833, 247.2797120180705, 0.0, 0.0, 0.0], [-5.7269449026024286e-05, 0.00022497319200484025, -0.00013505667045523743, 73.547459542644, 0.0, 0.0], [-0.0004851699529420757, -0.0005932797630030394, -0.0006342925220534208, 0.0, 73.54733994651087, 0.0], [0.016385491005432462, 0.017538547995412667, 0.015556358039222373, 0.0, 0.0, 73.54426030864732]], 'compliance_tensor': [[6.8, -2.4, -2.4, 0.0, -0.0, 0.0], [-2.4, 6.8, -2.4, 0.0, 0.0, -0.0], [-2.4, -2.4, 6.8, -0.0, 0.0, 0.0], [0.0, 0.0, -0.0, 13.6, -0.0, -0.0], [-0.0, 0.0, 0.0, -0.0, 13.6, -0.0], [0.0, -0.0, 0.0, -0.0, -0.0, 13.6]], 'warnings': [], 'nsites': 4}",0,65,175,0.11,0.33,172.9
162,mp-864788,NbInRu2,"{'Nb': 1.0, 'In': 1.0, 'Ru': 2.0}",0.125693975,10.42212331,"{'G_Reuss': 95.0, 'G_VRH': 95.0, 'G_Voigt': 96.0, 'G_Voigt_Reuss_Hill': 95.0, 'K_Reuss': 208.0, 'K_VRH': 208.0, 'K_Voigt': 208.0, 'K_Voigt_Reuss_Hill': 208.0, 'elastic_anisotropy': 0.03, 'elastic_tensor': [[323.0, 151.0, 151.0, 0.0, 0.0, 0.0], [151.0, 323.0, 151.0, 0.0, 0.0, 0.0], [151.0, 151.0, 323.0, 0.0, 0.0, 0.0], [0.0, 0.0, 0.0, 102.0, 0.0, 0.0], [0.0, 0.0, 0.0, 0.0, 102.0, 0.0], [0.0, 0.0, 0.0, 0.0, 0.0, 102.0]], 'homogeneous_poisson': 0.3, 'poisson_ratio': 0.3, 'universal_anisotropy': 0.03, 'elastic_tensor_original': [[322.4831913640259, 150.97974631100658, 150.97974631100658, 0.0, 0.0, 0.0], [150.49228848948542, 322.24807630583365, 150.49228848948542, 0.0, 0.0, 0.0], [150.53081210900572, 150.53081210900572, 323.2872819331987, 0.0, 0.0, 0.0], [-0.0001609365167742354, -0.00016790983861392277, -0.00015664317771581346, 101.88666519900801, 0.0, 0.0], [1.977008378805865e-05, 2.9833425694308536e-05, -5.773237310657227e-06, 0.0, 101.88652000595533, 0.0], [-0.0002610894280638222, -0.00027665943892373206, -0.00025778281246186473, 0.0, 0.0, 101.88677642871038]], 'compliance_tensor': [[4.4, -1.4, -1.4, -0.0, 0.0, 0.0], [-1.4, 4.4, -1.4, 0.0, -0.0, 0.0], [-1.4, -1.4, 4.4, 0.0, 0.0, 0.0], [-0.0, 0.0, 0.0, 9.8, -0.0, 0.0], [0.0, -0.0, 0.0, -0.0, 9.8, 0.0], [0.0, 0.0, 0.0, 0.0, 0.0, 9.8]], 'warnings': [], 'nsites': 4}",0,95,208,0.03,0.3,247
163,mp-865241,TmNbOs2,"{'Tm': 1.0, 'Nb': 1.0, 'Os': 2.0}",0.14839128,15.27276005,"{'G_Reuss': 87.0, 'G_VRH': 88.0, 'G_Voigt': 89.0, 'G_Voigt_Reuss_Hill': 88.0, 'K_Reuss': 204.0, 'K_VRH': 204.0, 'K_Voigt': 204.0, 'K_Voigt_Reuss_Hill': 204.0, 'elastic_anisotropy': 0.11, 'elastic_tensor': [[344.0, 135.0, 135.0, 0.0, -0.0, 0.0], [135.0, 344.0, 135.0, 0.0, -0.0, 0.0], [135.0, 135.0, 344.0, 0.0, -0.0, 0.0], [0.0, 0.0, 0.0, 78.0, 0.0, -0.0], [-0.0, -0.0, -0.0, 0.0, 78.0, 0.0], [0.0, 0.0, 0.0, -0.0, 0.0, 78.0]], 'homogeneous_poisson': 0.31, 'poisson_ratio': 0.31, 'universal_anisotropy': 0.11, 'elastic_tensor_original': [[322.99562199731656, 143.25000364078383, 149.754134027328, -12.624281382309796, 0.0, 0.0], [151.83405115112717, 318.2898488354744, 147.45802240579513, 13.386072029215713, 0.0, 0.0], [153.65157960887703, 153.65154820913344, 298.8935286947553, -2.6199786040214937e-05, 0.0, 0.0], [-10.249961326335661, 13.23076256448457, -5.7953581060769315, 93.98275039657574, 0.0, 0.0], [0.0, 0.0, 0.0, 0.0, 97.06684668845482, -13.345243420220354], [0.0, 0.0, 0.0, 0.0, -12.239404165358144, 88.29173733108104]], 'compliance_tensor': [[3.7, -1.0, -1.0, 0.0, 0.0, -0.0], [-1.0, 3.7, -1.0, -0.0, -0.0, -0.0], [-1.0, -1.0, 3.7, -0.0, 0.0, 0.0], [0.0, -0.0, -0.0, 12.9, -0.0, 0.0], [0.0, -0.0, 0.0, -0.0, 12.9, -0.0], [-0.0, -0.0, 0.0, 0.0, -0.0, 12.9]], 'warnings': ['Contains a rare earth element'], 'nsites': 4}",0,88,204,0.11,0.31,230.56
164,mp-865655,TiNbTc2,"{'Ti': 1.0, 'Nb': 1.0, 'Tc': 2.0}",0.132460804,8.908701472,"{'G_Reuss': 93.0, 'G_VRH': 96.0, 'G_Voigt': 98.0, 'G_Voigt_Reuss_Hill': 96.0, 'K_Reuss': 222.0, 'K_VRH': 222.0, 'K_Voigt': 222.0, 'K_Voigt_Reuss_Hill': 222.0, 'elastic_anisotropy': 0.28, 'elastic_tensor': [[392.0, 137.0, 137.0, 0.0, 0.0, 0.0], [137.0, 392.0, 137.0, 0.0, 0.0, 0.0], [137.0, 137.0, 392.0, 0.0, 0.0, 0.0], [0.0, 0.0, 0.0, 79.0, 0.0, 0.0], [0.0, 0.0, 0.0, 0.0, 79.0, 0.0], [0.0, 0.0, 0.0, 0.0, 0.0, 79.0]], 'homogeneous_poisson': 0.31, 'poisson_ratio': 0.31, 'universal_anisotropy': 0.28, 'elastic_tensor_original': [[391.85519839578336, 137.6650260544111, 137.66504871033757, -8.723534167456005e-05, -0.00014706302716223805, -0.00010991131764190716], [135.41658280719906, 391.0062109771338, 135.41658280719906, 0.0, 0.0, 0.0], [137.6250619310772, 137.6245728838572, 391.8091819516718, -1.6240088889081504e-05, 0.00010650290392444562, 2.3277460741016826e-05], [-0.00022140013143830847, -0.0002409567330780046, -0.0003223701402190593, 79.05245412127898, 0.0, 0.0], [0.0003992869583935728, 0.0004005736175620124, 0.0003701669167174476, 0.0, 79.0524844945496, 0.0], [-8.480095157339899e-06, -5.2501132471461846e-06, 1.8543268102368595e-05, 0.0, 0.0, 79.05242583450291]], 'compliance_tensor': [[3.1, -0.8, -0.8, 0.0, -0.0, 0.0], [-0.8, 3.1, -0.8, -0.0, 0.0, -0.0], [-0.8, -0.8, 3.1, -0.0, 0.0, 0.0], [0.0, -0.0, -0.0, 12.6, -0.0, 0.0], [-0.0, 0.0, 0.0, -0.0, 12.6, -0.0], [0.0, -0.0, 0.0, 0.0, -0.0, 12.6]], 'warnings': [], 'nsites': 4}",0,96,222,0.28,0.31,251.52