,mp_id,Formula,Composition,IPF,Density,Elastic_Tensor,E_above_Hull,G_VRH,K_VRH,Elastic_Anisotropy,poisson_ratio,Y_Modulus
28,mp-29652,TaSe3,"{'Ta': 1.0, 'Se': 3.0}",0.163914017,7.391898688,"{'G_Reuss': 4.0, 'G_VRH': 14.0, 'G_Voigt': 23.0, 'G_Voigt_Reuss_Hill': 14.0, 'K_Reuss': 5.0, 'K_VRH': 19.0, 'K_Voigt': 34.0, 'K_Voigt_Reuss_Hill': 19.0, 'elastic_anisotropy': 27.73, 'elastic_tensor': [[66.0, 18.0, 23.0, 0.0, -36.0, 0.0], [18.0, 122.0, 8.0, 0.0, -11.0, 0.0], [23.0, 8.0, 15.0, 0.0, -14.0, 0.0], [0.0, 0.0, 0.0, 12.0, 0.0, -17.0], [-36.0, -11.0, -14.0, 0.0, 23.0, 0.0], [0.0, 0.0, 0.0, -17.0, 0.0, 29.0]], 'homogeneous_poisson': 0.21, 'poisson_ratio': 0.21, 'universal_anisotropy': 27.73, 'elastic_tensor_original': [[121.8755605322189, 8.940207830176616, 17.909486887306524, -10.721959806330783, 0.0, 0.0], [8.399427265595522, 16.040772531855016, 23.6092818451696, -14.474610532328425, 0.0, 0.0], [18.26022020650179, 23.818760165524804, 63.75742870842496, -35.909223644552746, 0.0, 0.0], [-11.247154744674257, -14.695606446594375, -35.38176015432612, 23.96977467635422, 0.0, 0.0], [0.003312871710563677, 0.008214551450785826, 0.008039132741918123, 0.009213250819449606, 28.3646866423844, -16.805757471608175], [-0.04331225402723778, -0.02429420234518986, -0.039345125274814034, -0.0067338389430494335, -16.76367464628952, 12.631794564832461]], 'compliance_tensor': [[95.1, -1.0, -26.5, 0.0, 128.9, 0.0], [-1.0, 8.6, -2.1, 0.0, 1.2, 0.0], [-26.5, -2.1, 149.1, 0.0, 47.0, 0.0], [-0.0, -0.0, -0.0, 376.0, -0.0, 216.5], [128.9, 1.2, 47.0, 0.0, 267.6, 0.0], [0.0, 0.0, 0.0, 216.5, 0.0, 159.4]], 'warnings': [], 'nsites': 16}",0,14,19,27.73,0.21,33.88
29,mp-30835,TaPd2,"{'Ta': 1.0, 'Pd': 2.0}",0.154158207,13.64678735,"{'G_Reuss': 60.0, 'G_VRH': 72.0, 'G_Voigt': 83.0, 'G_Voigt_Reuss_Hill': 72.0, 'K_Reuss': 203.0, 'K_VRH': 205.0, 'K_Voigt': 206.0, 'K_Voigt_Reuss_Hill': 205.0, 'elastic_anisotropy': 1.91, 'elastic_tensor': [[272.0, 169.0, 209.0, 0.0, 0.0, 0.0], [169.0, 328.0, 121.0, 0.0, 0.0, 0.0], [209.0, 121.0, 262.0, 0.0, 0.0, 0.0], [0.0, 0.0, 0.0, 60.0, 0.0, 0.0], [0.0, 0.0, 0.0, 0.0, 118.0, 0.0], [0.0, 0.0, 0.0, 0.0, 0.0, 117.0]], 'homogeneous_poisson': 0.34, 'poisson_ratio': 0.34, 'universal_anisotropy': 1.91, 'elastic_tensor_original': [[261.6696124645444, 207.74184373031468, 121.19873358418542, 0.0, 0.0, 0.0], [210.43612043540824, 271.65322188748587, 168.19402762465938, 0.0, 0.0, 0.0], [119.95200849500952, 169.2336313329868, 327.94194560303146, 0.0, 0.0, 0.0], [0.00015008679180043613, 0.00012666677227641347, 0.0002467868724213701, 117.10859813729515, 0.0, 0.0], [0.00029798349587391234, 0.00017883343088245386, 0.00019164677120392978, 0.0, 59.53305269668413, 0.0], [-9.094337124227532e-05, 0.0002187200911795371, -2.0856675358439354e-05, 0.0, 0.0, 117.9889355567739]], 'compliance_tensor': [[11.7, -3.1, -7.9, 0.0, 0.0, 0.0], [-3.1, 4.5, 0.4, 0.0, -0.0, 0.0], [-7.9, 0.4, 10.0, 0.0, -0.0, 0.0], [0.0, 0.0, 0.0, 16.8, 0.0, 0.0], [0.0, -0.0, -0.0, 0.0, 8.5, 0.0], [0.0, 0.0, 0.0, 0.0, 0.0, 8.5]], 'warnings': [], 'nsites': 3}",0,72,205,1.91,0.34,192.96
30,mp-30836,TaPd3,"{'Ta': 1.0, 'Pd': 3.0}",0.158788068,13.28857423,"{'G_Reuss': 84.0, 'G_VRH': 89.0, 'G_Voigt': 94.0, 'G_Voigt_Reuss_Hill': 89.0, 'K_Reuss': 214.0, 'K_VRH': 214.0, 'K_Voigt': 214.0, 'K_Voigt_Reuss_Hill': 214.0, 'elastic_anisotropy': 0.59, 'elastic_tensor': [[289.0, 188.0, 165.0, 0.0, 0.0, 0.0], [188.0, 289.0, 165.0, 0.0, 0.0, 0.0], [165.0, 165.0, 315.0, 0.0, 0.0, 0.0], [0.0, 0.0, 0.0, 112.0, 0.0, 0.0], [0.0, 0.0, 0.0, 0.0, 112.0, 0.0], [0.0, 0.0, 0.0, 0.0, 0.0, 122.0]], 'homogeneous_poisson': 0.32, 'poisson_ratio': 0.32, 'universal_anisotropy': 0.59, 'elastic_tensor_original': [[288.50124407409453, 187.73126779106207, 163.95399466832848, 0.0, 0.0, 0.0], [187.73086210070858, 288.503640337225, 163.95544245988006, 0.0, 0.0, 0.0], [166.385961570098, 166.385961570098, 314.69160345077944, 0.0, 0.0, 0.0], [-0.035000345790806575, 0.001272565355881756, -0.014739381265559298, 112.16390372816441, 0.0, 0.0], [-0.0016636231648898521, 0.034895581258117314, 0.014386823104012255, 0.0, 112.16370887462216, 0.0], [-0.03495079756366473, -0.2257795231159802, 0.154210592967011, 0.02186858053544302, -0.038592309199246784, 122.48042530641446]], 'compliance_tensor': [[6.6, -3.3, -1.7, -0.0, 0.0, -0.0], [-3.3, 6.6, -1.7, 0.0, 0.0, 0.0], [-1.7, -1.7, 5.0, -0.0, -0.0, -0.0], [-0.0, 0.0, -0.0, 8.9, -0.0, -0.0], [0.0, 0.0, -0.0, -0.0, 8.9, -0.0], [-0.0, 0.0, -0.0, -0.0, -0.0, 8.2]], 'warnings': [], 'nsites': 4}",0,89,214,0.59,0.32,234.96
31,mp-30849,TaPt2,"{'Ta': 1.0, 'Pt': 2.0}",0.13526182,19.2036663,"{'G_Reuss': 62.0, 'G_VRH': 78.0, 'G_Voigt': 94.0, 'G_Voigt_Reuss_Hill': 78.0, 'K_Reuss': 242.0, 'K_VRH': 243.0, 'K_Voigt': 244.0, 'K_Voigt_Reuss_Hill': 243.0, 'elastic_anisotropy': 2.52, 'elastic_tensor': [[419.0, 171.0, 152.0, 0.0, 0.0, 0.0], [171.0, 440.0, 150.0, 0.0, 0.0, 0.0], [152.0, 150.0, 385.0, 0.0, 0.0, 0.0], [0.0, 0.0, 0.0, 98.0, 0.0, 0.0], [0.0, 0.0, 0.0, 0.0, 23.0, 0.0], [0.0, 0.0, 0.0, 0.0, 0.0, 91.0]], 'homogeneous_poisson': 0.35, 'poisson_ratio': 0.35, 'universal_anisotropy': 2.52, 'elastic_tensor_original': [[419.4667726630393, 171.37667118419873, 150.86748986871234, 0.0, 0.0, 0.0], [171.35081790468612, 440.33327186557597, 150.3708544917101, 0.0, 0.0, 0.0], [153.925020721453, 150.47294938890153, 385.141206061802, 0.0, 0.0, 0.0], [0.14857354758361133, -0.13456946343420942, -0.22603505448807795, 97.80958457175244, 0.0, 0.0], [-0.00015227333067603015, 1.0749999812217072e-05, -0.00029005332827053876, 0.0, 23.11955529982223, 0.0], [-0.00015939666111485344, -1.4849999482880616e-05, -6.344333112571377e-05, 0.0, 0.0, 91.41868995906846]], 'compliance_tensor': [[3.1, -0.9, -0.9, 0.0, 0.0, -0.0], [-0.9, 2.9, -0.8, 0.0, 0.0, 0.0], [-0.9, -0.8, 3.2, 0.0, 0.0, 0.0], [0.0, 0.0, 0.0, 10.2, 0.0, 0.0], [0.0, 0.0, 0.0, 0.0, 43.3, 0.0], [-0.0, 0.0, 0.0, 0.0, 0.0, 10.9]], 'warnings': [], 'nsites': 6}",0,78,243,2.52,0.35,210.6
32,mp-30850,TaPt3,"{'Ta': 1.0, 'Pt': 3.0}",0.13872195,19.90951077,"{'G_Reuss': 85.0, 'G_VRH': 90.0, 'G_Voigt': 95.0, 'G_Voigt_Reuss_Hill': 90.0, 'K_Reuss': 262.0, 'K_VRH': 262.0, 'K_Voigt': 262.0, 'K_Voigt_Reuss_Hill': 262.0, 'elastic_anisotropy': 0.63, 'elastic_tensor': [[410.0, 175.0, 195.0, 0.0, 0.0, 0.0], [175.0, 441.0, 169.0, 0.0, 0.0, 0.0], [195.0, 169.0, 424.0, 0.0, 0.0, 0.0], [0.0, 0.0, 0.0, 49.0, 0.0, 0.0], [0.0, 0.0, 0.0, 0.0, 81.0, 0.0], [0.0, 0.0, 0.0, 0.0, 0.0, 101.0]], 'homogeneous_poisson': 0.35, 'poisson_ratio': 0.35, 'universal_anisotropy': 0.63, 'elastic_tensor_original': [[423.950245431486, 195.87730358973624, 169.926594608637, 0.0, 0.0, 0.0], [194.08911991777995, 410.13381864863317, 175.49970362892424, 0.0, 0.0, 0.0], [168.5273129561207, 175.03936496548025, 440.72995698075925, 0.0, 0.0, 0.0], [-0.0011910705663545282, -0.0004438244723614113, -0.0027637362943369473, 101.24450585597482, 0.0, 0.0], [0.0049243110117719, 0.0021377722717631316, 0.0063460771234706915, 0.0, 49.091562400953485, 0.0], [1.606642530766796e-05, -0.00028242666219840474, 0.00012756307682669434, 0.0, 0.0, 81.2708696142294]], 'compliance_tensor': [[3.4, -0.9, -1.2, 0.0, 0.0, 0.0], [-0.9, 2.9, -0.8, 0.0, 0.0, 0.0], [-1.2, -0.8, 3.2, 0.0, 0.0, 0.0], [0.0, 0.0, 0.0, 20.4, 0.0, 0.0], [0.0, 0.0, 0.0, 0.0, 12.3, 0.0], [0.0, 0.0, 0.0, 0.0, 0.0, 9.9]], 'warnings': [], 'nsites': 8}",0.313665625,90,262,0.63,0.35,243
33,mp-30871,Ta3Sn,"{'Ta': 3.0, 'Sn': 1.0}",0.123472975,14.54767412,"{'G_Reuss': 26.0, 'G_VRH': 27.0, 'G_Voigt': 28.0, 'G_Voigt_Reuss_Hill': 27.0, 'K_Reuss': 179.0, 'K_VRH': 179.0, 'K_Voigt': 179.0, 'K_Voigt_Reuss_Hill': 179.0, 'elastic_anisotropy': 0.29, 'elastic_tensor': [[226.0, 155.0, 155.0, 0.0, 0.0, 0.0], [155.0, 226.0, 155.0, 0.0, 0.0, 0.0], [155.0, 155.0, 226.0, 0.0, 0.0, 0.0], [0.0, 0.0, 0.0, 22.0, 0.0, 0.0], [0.0, 0.0, 0.0, 0.0, 22.0, 0.0], [0.0, 0.0, 0.0, 0.0, 0.0, 22.0]], 'homogeneous_poisson': 0.43, 'poisson_ratio': 0.43, 'universal_anisotropy': 0.29, 'elastic_tensor_original': [[226.46600735549865, 154.7529653112718, 154.7529653112718, 0.0, 0.0, 0.0], [154.75184976878737, 226.46599127293987, 154.75184976878737, 0.0, 0.0, 0.0], [154.7530585102158, 154.7530585102158, 226.46604525118272, 0.0, 0.0, 0.0], [-0.0006711511701975074, 0.0001515835794112396, 0.0004869744948850146, 22.11233280034673, 0.0, 0.0], [0.00012006316974134216, 0.00013986644108577345, -0.00016736997205148098, 0.0, 22.111710796147992, 0.0], [0.0003279229186679552, 0.0003127898057392045, 3.8945687556746564e-05, 0.0, 0.0, 22.112293893092225]], 'compliance_tensor': [[9.9, -4.0, -4.0, 0.0, -0.0, 0.0], [-4.0, 9.9, -4.0, -0.0, -0.0, -0.0], [-4.0, -4.0, 9.9, -0.0, 0.0, -0.0], [0.0, -0.0, -0.0, 45.2, -0.0, 0.0], [-0.0, -0.0, 0.0, -0.0, 45.2, -0.0], [0.0, -0.0, -0.0, 0.0, -0.0, 45.2]], 'warnings': [], 'nsites': 8}",0,27,179,0.29,0.43,77.22
34,mp-31454,TaSbRu,"{'Ta': 1.0, 'Sb': 1.0, 'Ru': 1.0}",0.099576444,11.28852735,"{'G_Reuss': 70.0, 'G_VRH': 70.0, 'G_Voigt': 70.0, 'G_Voigt_Reuss_Hill': 70.0, 'K_Reuss': 175.0, 'K_VRH': 175.0, 'K_Voigt': 175.0, 'K_Voigt_Reuss_Hill': 175.0, 'elastic_anisotropy': 0.0, 'elastic_tensor': [[266.0, 130.0, 130.0, 0.0, 0.0, 0.0], [130.0, 266.0, 130.0, 0.0, 0.0, 0.0], [130.0, 130.0, 266.0, 0.0, 0.0, 0.0], [0.0, 0.0, 0.0, 72.0, 0.0, 0.0], [0.0, 0.0, 0.0, 0.0, 72.0, 0.0], [0.0, 0.0, 0.0, 0.0, 0.0, 72.0]], 'homogeneous_poisson': 0.32, 'poisson_ratio': 0.32, 'universal_anisotropy': 0.0, 'elastic_tensor_original': [[265.92589460258586, 130.24181233874162, 130.24181233874162, 0.0, 0.0, 0.0], [130.24263843663584, 265.92786888141774, 130.24263843663584, 0.0, 0.0, 0.0], [130.24056548001687, 130.24056548001687, 265.92473542885244, 0.0, 0.0, 0.0], [-0.0001005467858007713, -6.87268820068208e-05, 8.119691320391125e-06, 71.91925181792604, 0.0, 0.0], [5.649032215188063e-05, 0.00011583372240533453, 2.9553631763666534e-05, 0.0, 71.91917071142122, 0.0], [1.851023607792615e-05, 5.936724552972162e-06, 6.915341676356067e-05, 0.0, 0.0, 71.9192553047746]], 'compliance_tensor': [[5.5, -1.8, -1.8, 0.0, -0.0, -0.0], [-1.8, 5.5, -1.8, -0.0, 0.0, -0.0], [-1.8, -1.8, 5.5, -0.0, -0.0, 0.0], [0.0, -0.0, -0.0, 13.9, -0.0, -0.0], [-0.0, 0.0, -0.0, -0.0, 13.9, -0.0], [-0.0, -0.0, 0.0, -0.0, -0.0, 13.9]], 'warnings': [], 'nsites': 3}",0,70,175,0,0.32,184.8
35,mp-3340,TaAlCo2,"{'Ta': 1.0, 'Al': 1.0, 'Co': 2.0}",0.140039328,10.24116546,"{'G_Reuss': 94.0, 'G_VRH': 98.0, 'G_Voigt': 102.0, 'G_Voigt_Reuss_Hill': 98.0, 'K_Reuss': 203.0, 'K_VRH': 203.0, 'K_Voigt': 203.0, 'K_Voigt_Reuss_Hill': 203.0, 'elastic_anisotropy': 0.4, 'elastic_tensor': [[296.0, 156.0, 156.0, 0.0, 0.0, 0.0], [156.0, 296.0, 156.0, 0.0, 0.0, 0.0], [156.0, 156.0, 296.0, 0.0, 0.0, 0.0], [0.0, 0.0, 0.0, 123.0, 0.0, 0.0], [0.0, 0.0, 0.0, 0.0, 123.0, 0.0], [0.0, 0.0, 0.0, 0.0, 0.0, 123.0]], 'homogeneous_poisson': 0.29, 'poisson_ratio': 0.29, 'universal_anisotropy': 0.4, 'elastic_tensor_original': [[294.20811166079807, 154.51302990013897, 154.51302990013897, 0.0, 0.0, 0.0], [154.4990458680317, 294.194637303119, 154.4990458680317, 0.0, 0.0, 0.0], [159.97159517135682, 159.97159517135682, 298.7419229889395, 0.0, 0.0, 0.0], [4.926670415193575e-05, 0.00014120344076812096, 0.00036266027592897954, 122.92038602695249, 0.0, 0.0], [0.00027705354413033213, 6.976671974915994e-05, 0.00021330682896018573, 0.0, 122.91997004996935, 0.0], [-3.2706691548819784e-05, -4.000336376993268e-05, 0.00018051680401165598, 0.0, 0.0, 122.92010615007288]], 'compliance_tensor': [[5.3, -1.8, -1.8, 0.0, -0.0, -0.0], [-1.8, 5.3, -1.8, -0.0, 0.0, -0.0], [-1.8, -1.8, 5.3, -0.0, -0.0, 0.0], [0.0, -0.0, -0.0, 8.1, -0.0, -0.0], [-0.0, 0.0, -0.0, -0.0, 8.1, -0.0], [-0.0, -0.0, 0.0, -0.0, -0.0, 8.1]], 'warnings': [], 'nsites': 4}",0,98,203,0.4,0.29,252.84
36,mp-3666,LiTaO3,"{'Li': 1.0, 'Ta': 1.0, 'O': 3.0}",0.558961511,7.178371403,"{'G_Reuss': 83.0, 'G_VRH': 83.0, 'G_Voigt': 83.0, 'G_Voigt_Reuss_Hill': 83.0, 'K_Reuss': 122.0, 'K_VRH': 123.0, 'K_Voigt': 124.0, 'K_Voigt_Reuss_Hill': 123.0, 'elastic_anisotropy': 0.05, 'elastic_tensor': [[223.0, 51.0, 78.0, -6.0, 0.0, 0.0], [51.0, 223.0, 78.0, 6.0, 0.0, 0.0], [78.0, 78.0, 257.0, 0.0, 0.0, 0.0], [-6.0, 6.0, 0.0, 83.0, 0.0, 0.0], [0.0, 0.0, 0.0, 0.0, 83.0, -6.0], [0.0, 0.0, 0.0, 0.0, -6.0, 86.0]], 'homogeneous_poisson': 0.22, 'poisson_ratio': 0.22, 'universal_anisotropy': 0.05, 'elastic_tensor_original': [[224.69876089139757, 49.2233347725949, 76.59145112325551, 7.263016296005622, 0.0, 0.0], [50.267279248408535, 223.75968440567354, 77.14384881093514, -6.480761640431316, 0.0, 0.0], [79.26682498250783, 79.26682090284872, 257.0172131676057, 0.0, 0.0, 0.0], [6.014493590390917, -5.433084766984663, 1.1903633620706258, 83.24866608631393, 0.0, 0.0], [0.012514411217282846, -0.033782443286030785, 0.01143437444556007, 0.03757772032186576, 83.26020627541817, 5.868439867492015], [-8.406667799170393e-06, 4.03666720974169e-06, -8.35666779297802e-06, -6.223334172226333e-06, 5.023269368075026, 84.18165496007835]], 'compliance_tensor': [[5.137932576267774, -0.7238915379845506, -1.3407351556067804, 0.4134282521532306, -8.260747100634891e-17, 1.0854021836880766e-06], [-0.7238915379845503, 5.137933829582643, -1.340735319132009, -0.4134283025777492, 8.73378389736656e-08, 1.0854023171745968e-06], [-1.3407351556067804, -1.3407353191320093, 4.705268470732486, -3.7096422694214254e-18, 6.419842088994579e-17, -2.8323393536639655e-07], [0.4134282521532307, -0.4134283025777492, -2.892996753117946e-17, 12.069690004126063, 1.2748772126147483e-06, 1.7467567816366645e-07], [-2.2152986369868117e-16, 8.733783892718424e-08, 1.20513547571168e-16, 1.2748772126038182e-06, 12.069688532024303, 0.8268565043064613], [1.0854021819426934e-06, 1.085402317626559e-06, -2.832339349735288e-07, 1.7467567794615464e-07, 0.8268565043064615, 11.723649481819674]], 'warnings': [], 'nsites': 10}",0,83,123,0.05,0.22,202.52
37,mp-4081,TaCu3Se4,"{'Ta': 1.0, 'Cu': 3.0, 'Se': 4.0}",0.143111962,6.124709722,"{'G_Reuss': 21.0, 'G_VRH': 22.0, 'G_Voigt': 22.0, 'G_Voigt_Reuss_Hill': 22.0, 'K_Reuss': 31.0, 'K_VRH': 31.0, 'K_Voigt': 31.0, 'K_Voigt_Reuss_Hill': 31.0, 'elastic_anisotropy': 0.3, 'elastic_tensor': [[70.0, 12.0, 12.0, 0.0, 0.0, 0.0], [12.0, 70.0, 12.0, 0.0, 0.0, 0.0], [12.0, 12.0, 70.0, 0.0, 0.0, 0.0], [0.0, 0.0, 0.0, 18.0, 0.0, 0.0], [0.0, 0.0, 0.0, 0.0, 18.0, 0.0], [0.0, 0.0, 0.0, 0.0, 0.0, 18.0]], 'homogeneous_poisson': 0.22, 'poisson_ratio': 0.22, 'universal_anisotropy': 0.3, 'elastic_tensor_original': [[70.3056212309457, 12.0583186723209, 12.0583186723209, 0.0, 0.0, 0.0], [12.058936608338579, 70.30583688751304, 12.058936608338579, 0.0, 0.0, 0.0], [12.061488973580468, 12.061488973580468, 70.30924745235625, 0.0, 0.0, 0.0], [-0.0022264734336729323, -0.0026376710931380696, -0.002736191311391414, 17.780305810961256, 0.0, 0.0], [0.004046996652400888, 0.0005472281773568203, 0.0016816941568652826, 0.0, 17.78704548628044, 0.0], [-0.0021340852367417273, -0.0010947861265853478, -0.0054233264947419636, 0.0, 0.0, 17.78724046408425]], 'compliance_tensor': [[15.0, -2.2, -2.2, 0.0, -0.0, 0.0], [-2.2, 15.0, -2.2, 0.0, 0.0, -0.0], [-2.2, -2.2, 15.0, -0.0, -0.0, -0.0], [0.0, 0.0, -0.0, 56.2, 0.0, -0.0], [-0.0, 0.0, -0.0, 0.0, 56.2, -0.0], [0.0, -0.0, -0.0, -0.0, -0.0, 56.2]], 'warnings': [], 'nsites': 8}",0,22,31,0.3,0.22,53.68
38,mp-517,TaSi2,"{'Ta': 1.0, 'Si': 2.0}",0.082411014,8.942224434,"{'G_Reuss': 141.0, 'G_VRH': 142.0, 'G_Voigt': 142.0, 'G_Voigt_Reuss_Hill': 142.0, 'K_Reuss': 184.0, 'K_VRH': 185.0, 'K_Voigt': 186.0, 'K_Voigt_Reuss_Hill': 185.0, 'elastic_anisotropy': 0.05, 'elastic_tensor': [[359.0, 81.0, 87.0, 0.0, 0.0, 0.0], [81.0, 359.0, 87.0, 0.0, 0.0, 0.0], [87.0, 87.0, 446.0, 0.0, 0.0, 0.0], [0.0, 0.0, 0.0, 135.0, 0.0, 0.0], [0.0, 0.0, 0.0, 0.0, 135.0, 0.0], [0.0, 0.0, 0.0, 0.0, 0.0, 139.0]], 'homogeneous_poisson': 0.19, 'poisson_ratio': 0.19, 'universal_anisotropy': 0.05, 'elastic_tensor_original': [[360.59176284224276, 79.23390617304104, 85.85180015731788, 0.0, 0.0, 3.772053973171031e-06], [79.43570460766588, 360.01068711660037, 85.89104160470797, 0.0, 0.0, 0.0], [87.95943268727099, 87.95941938096809, 446.31085975349345, 0.0, 0.0, 0.0], [-4.547339733573372e-05, -9.420013258814038e-06, -0.00023664699974170145, 134.66552842136062, 0.0, 0.0], [2.5996646274629972e-05, -6.639994790854943e-06, -2.0236650790107074e-05, 0.0, 134.3409517027217, 0.0], [0.0381540643159763, -0.14416046369483643, -0.16809041882869658, 0.0, 0.0, 137.87799394618133]], 'compliance_tensor': [[3.0284102138872337, -0.5640443247488958, -0.4799153005859674, 8.059366274248414e-24, 4.962895694075348e-24, -6.995622239089937e-17], [-0.564044324748896, 3.028410431303909, -0.4799153178130899, 8.059366563548817e-24, -1.2947336142898595e-23, -9.991866743504019e-17], [-0.47991530058596743, -0.4799153178130899, 2.427510021253477, -4.0765927595562837e-23, 1.566500512985124e-23, 1.5283367952288546e-17], [8.059366274248414e-24, 8.059366563548817e-24, -4.0765927595562837e-23, 7.434765270079506, -5.876405440842829e-17, -1.2202290604847971e-24], [2.0028423528048664e-24, 2.9454864999145814e-24, 1.3146453169148611e-23, -5.876405440842829e-17, 7.434765003199899, 2.745404623131443e-24], [-1.4068854269847683e-16, 1.2750473719016624e-17, 7.116512549629375e-18, -1.2202290604847968e-24, 2.7454046231314427e-24, 7.184909294688932]], 'warnings': [], 'nsites': 9}",0.005754444,142,185,0.05,0.19,337.96
39,mp-541,Ta3Sb,"{'Ta': 3.0, 'Sb': 1.0}",0.125044189,14.80071912,"{'G_Reuss': 80.0, 'G_VRH': 84.0, 'G_Voigt': 89.0, 'G_Voigt_Reuss_Hill': 84.0, 'K_Reuss': 185.0, 'K_VRH': 185.0, 'K_Voigt': 185.0, 'K_Voigt_Reuss_Hill': 185.0, 'elastic_anisotropy': 0.57, 'elastic_tensor': [[353.0, 101.0, 101.0, 0.0, 0.0, 0.0], [101.0, 353.0, 101.0, 0.0, 0.0, 0.0], [101.0, 101.0, 353.0, 0.0, 0.0, 0.0], [0.0, 0.0, 0.0, 64.0, 0.0, 0.0], [0.0, 0.0, 0.0, 0.0, 64.0, 0.0], [0.0, 0.0, 0.0, 0.0, 0.0, 64.0]], 'homogeneous_poisson': 0.3, 'poisson_ratio': 0.3, 'universal_anisotropy': 0.57, 'elastic_tensor_original': [[352.8226437394568, 101.43886625195283, 101.43886625195283, 0.0, 0.0, 0.0], [101.43713427200734, 352.82195695266273, 101.43713427200734, 0.0, 0.0, 0.0], [101.43765681659329, 101.43765681659329, 352.82245545484585, 0.0, 0.0, 0.0], [7.787015722697378e-05, -5.239314639230527e-05, -0.0002205165574358452, 64.01232469884975, 0.0, 0.0], [7.336334716091905e-05, -0.00023316327022461055, 5.2120043355029645e-05, 0.0, 64.01225946219718, 0.0], [-0.0003866165067878029, -0.0003995234335986402, -0.0003758932083942742, 0.0, 0.0, 64.01174660957979]], 'compliance_tensor': [[3.3, -0.7, -0.7, 0.0, 0.0, -0.0], [-0.7, 3.3, -0.7, -0.0, -0.0, 0.0], [-0.7, -0.7, 3.3, 0.0, 0.0, -0.0], [0.0, -0.0, 0.0, 15.6, 0.0, -0.0], [0.0, -0.0, 0.0, 0.0, 15.6, -0.0], [-0.0, 0.0, -0.0, -0.0, -0.0, 15.6]], 'warnings': [], 'nsites': 8}",0,84,185,0.57,0.3,218.4