,mp_id,Formula,Composition,IPF,Density,Elastic_Tensor,E_above_Hull,G_VRH,K_VRH,Elastic_Anisotropy,poisson_ratio,Y_Modulus
79,mp-4001,BaTaS3,"{'Ba': 1.0, 'Ta': 1.0, 'S': 3.0}",0.205808393,5.727826193,"{'G_Reuss': -2.0, 'G_VRH': 9.0, 'G_Voigt': 19.0, 'G_Voigt_Reuss_Hill': 9.0, 'K_Reuss': 47.0, 'K_VRH': 48.0, 'K_Voigt': 49.0, 'K_Voigt_Reuss_Hill': 48.0, 'elastic_anisotropy': -66.46, 'elastic_tensor': [[77.0, 33.0, 20.0, 0.0, 0.0, 0.0], [33.0, 77.0, 20.0, 0.0, 0.0, 0.0], [20.0, 20.0, 145.0, 0.0, 0.0, 0.0], [0.0, 0.0, 0.0, -1.0, 0.0, 0.0], [0.0, 0.0, 0.0, 0.0, -1.0, 0.0], [0.0, 0.0, 0.0, 0.0, 0.0, 22.0]], 'homogeneous_poisson': 0.41, 'poisson_ratio': 0.41, 'universal_anisotropy': -66.46, 'elastic_tensor_original': [[76.95051848908942, 32.70450552896803, 19.4225709041431, 0.0, 0.0, 0.0], [32.5379092933139, 77.39689196002347, 19.477667534369946, 0.0, 0.0, 6.400057020680775e-06], [20.609095600765105, 20.60909600076893, 145.17996637306226, 0.0, 0.0, 1.8000172236948476e-06], [0.0, 0.0, 0.0, -0.6983955644302159, -1.0000000921103887e-07, 0.0], [0.0, 0.0, 0.0, 0.0, -0.5173344441498025, 0.0], [3.7012297641112597e-06, 0.0, 0.0, 0.0, 0.0, 22.285636918999913]], 'compliance_tensor': [[16.015678172268213, -6.425024336371064, -1.3231648254566726, 0.0, 0.0, -2.6599064334050174e-06], [-6.425024336371063, 16.015677141876438, -1.323164782892814, 0.0, 0.0, -2.6599063484079204e-06], [-1.323164825456673, -1.3231647828928135, 7.2531008905934, 0.0, 0.0, 2.197530816982814e-07], [-0.0, -0.0, -0.0, -1645.1020855845152, 0.0001366104424192321, -0.0], [-0.0, -0.0, -0.0, 0.0001366104424192321, -1645.1021385045271, -0.0], [-2.6599064332342716e-06, -2.6599063488335396e-06, 2.1975308173344464e-07, 0.0, 0.0, 44.8814039868872]], 'warnings': ['Elastic tensor has a negative eigenvalue', 'One or more K, G below 2 GPa'], 'nsites': 10}",0,9,48,-66.46,0.41,25.38
80,mp-4875,GdTaO4,"{'Gd': 1.0, 'Ta': 1.0, 'O': 4.0}",0.52695082,8.57740316,"{'G_Reuss': 63.0, 'G_VRH': 65.0, 'G_Voigt': 67.0, 'G_Voigt_Reuss_Hill': 65.0, 'K_Reuss': 134.0, 'K_VRH': 140.0, 'K_Voigt': 146.0, 'K_Voigt_Reuss_Hill': 140.0, 'elastic_anisotropy': 0.45, 'elastic_tensor': [[288.0, 86.0, 116.0, 0.0, -11.0, 0.0], [86.0, 169.0, 88.0, 0.0, 16.0, 0.0], [116.0, 88.0, 277.0, 0.0, -15.0, 0.0], [0.0, 0.0, 0.0, 62.0, 0.0, 8.0], [-11.0, 16.0, -15.0, 0.0, 67.0, 0.0], [0.0, 0.0, 0.0, 8.0, 0.0, 58.0]], 'homogeneous_poisson': 0.3, 'poisson_ratio': 0.3, 'universal_anisotropy': 0.45, 'elastic_tensor_original': [[169.20412986699057, 87.44462026657861, 86.34997242775343, 16.485213962561584, 0.0, 0.0], [89.14435754791928, 277.44879487117737, 116.34532131049565, -14.395465960966574, 0.0, 0.0], [86.04719461397966, 116.44262317158315, 288.44068107373613, -10.607157786208312, 0.0, 0.0], [15.268445801358313, -15.145314811015517, -11.292266796997056, 66.96646992103099, 0.0, 0.0], [-0.0006643557299090153, -0.0006851864922984717, -0.001316753500829063, -0.0011381572697856854, 58.027071336743276, 8.774138147691554], [1.1664300681174353e-07, -4.9233565987187384e-06, 3.966292963455996e-07, 1.6066484235921129e-06, 7.765880811903508, 62.31868920312912]], 'compliance_tensor': [[4.540558473160782, -1.7067519582216033, -1.3160705565101884, 0.0, 0.856775053268396, 0.0], [-1.7067519582216029, 8.065057019387341, -1.990627445345098, 0.0, -2.630241478804113, 0.0], [-1.3160705565101887, -1.9906274453450976, 4.860625273120219, 0.0, 1.3288556791807353, 0.0], [0.0, 0.0, 0.0, 16.355858595463943, 0.0, -2.331030664058695], [0.8567750532683959, -2.6302414788041135, 1.3288556791807358, 0.0, 15.989616580323398, 0.0], [0.0, 0.0, 0.0, -2.3310306640586944, 0.0, 17.56558791338748]], 'warnings': ['Structure contains a rare earth element'], 'nsites': 12}",0,65,140,0.45,0.3,169
81,mp-5461,Rb3TaO8,"{'Rb': 3.0, 'Ta': 1.0, 'O': 8.0}",0.593070888,4.390006388,"{'G_Reuss': 8.0, 'G_VRH': 11.0, 'G_Voigt': 13.0, 'G_Voigt_Reuss_Hill': 11.0, 'K_Reuss': 18.0, 'K_VRH': 29.0, 'K_Voigt': 40.0, 'K_Voigt_Reuss_Hill': 29.0, 'elastic_anisotropy': 3.73, 'elastic_tensor': [[83.0, 36.0, 26.0, 0.0, 0.0, 0.0], [36.0, 83.0, 26.0, 0.0, 0.0, 0.0], [26.0, 26.0, 19.0, 0.0, 0.0, 0.0], [0.0, 0.0, 0.0, 9.0, 0.0, 0.0], [0.0, 0.0, 0.0, 0.0, 9.0, 0.0], [0.0, 0.0, 0.0, 0.0, 0.0, 13.0]], 'homogeneous_poisson': 0.34, 'poisson_ratio': 0.34, 'universal_anisotropy': 3.73, 'elastic_tensor_original': [[83.08161309001032, 36.22511877341661, 11.44846576193507, 0.0, 0.0, 0.0], [36.225118773416604, 83.08161309001032, 11.448465761935074, 0.0, 0.0, 0.0], [39.56545192262127, 39.56545192262127, 19.106292758797377, 0.0, 0.0, 0.0], [0.0, 0.0, 0.0, 8.960156863510605, 0.0, 0.0], [0.0, 0.0, 0.0, 0.0, 8.960156863510605, 0.0], [0.12673351482223036, -0.1267335148222299, 0.0, 0.0, 0.0, 12.672616185328085]], 'compliance_tensor': [[20.43593282685125, -0.9058259748920952, -26.07275194340593, 5.800968989662531e-16, 8.925611442391394e-16, -1.977919896692326e-15], [-0.9058259748920966, 20.43593282685124, -26.072751943405923, -3.804991626125792e-16, -3.9029169952599406e-16, -1.0592124308920385e-15], [-26.07275194340593, -26.072751943405926, 121.95318321906787, -2.344207295656615e-15, 2.4135437968280746e-15, 1.3284278429715615e-15], [5.800968989662527e-16, -3.8049916261257905e-16, -2.344207295656615e-15, 111.60518897525175, -2.8881426980980508e-15, 1.700632530104448e-15], [8.925611442391394e-16, -3.9029169952599465e-16, 2.4135437968280758e-15, -2.888142698098051e-15, 111.60518897525176, -6.983059506011349e-16], [-1.9779198966923268e-15, -1.0592124308920385e-15, 1.3284278429715615e-15, 1.7006325301044467e-15, -6.983059506011346e-16, 78.9103043425055]], 'warnings': [], 'nsites': 12}",0.118347205,11,29,3.73,0.34,29.48
82,mp-5475,NaTaN2,"{'Na': 1.0, 'Ta': 1.0, 'N': 2.0}",0.224855424,7.914573174,"{'G_Reuss': 81.0, 'G_VRH': 96.0, 'G_Voigt': 110.0, 'G_Voigt_Reuss_Hill': 96.0, 'K_Reuss': 126.0, 'K_VRH': 136.0, 'K_Voigt': 146.0, 'K_Voigt_Reuss_Hill': 136.0, 'elastic_anisotropy': 1.93, 'elastic_tensor': [[407.0, 80.0, 36.0, 2.0, 0.0, 0.0], [80.0, 407.0, 36.0, -2.0, 0.0, 0.0], [36.0, 36.0, 195.0, 0.0, 0.0, 0.0], [2.0, -2.0, 0.0, 50.0, 0.0, 0.0], [0.0, 0.0, 0.0, 0.0, 50.0, 2.0], [0.0, 0.0, 0.0, 0.0, 2.0, 164.0]], 'homogeneous_poisson': 0.22, 'poisson_ratio': 0.22, 'universal_anisotropy': 1.93, 'elastic_tensor_original': [[407.78022467475364, 78.98476060538127, 36.033623125512655, -3.6303775200160824, 0.0, 0.0], [79.20325640177374, 408.02190727579915, 36.457810017755634, 3.5549547781376223, 0.0, 0.0], [35.658310525960786, 35.658298368462205, 195.42027549739214, 0.0, 0.0, 0.0], [-1.3760590932129964, 2.4163311210792204, 0.15242246527296435, 49.99780522607535, 0.0, 0.0], [-2.0431978107594435e-05, 0.00012399354078746437, 4.839402331937936e-05, 5.981398069743969e-05, 50.20665148513823, -1.932011903716879], [2.6053115031818905e-05, 0.0001435135328278371, -5.9293796096573906e-05, 2.376017139374877e-05, -1.846417295900241, 162.99036570373198]], 'compliance_tensor': [[2.6, -0.5, -0.4, -0.1, 0.0, -0.0], [-0.5, 2.6, -0.4, 0.1, 0.0, -0.0], [-0.4, -0.4, 5.3, -0.0, -0.0, 0.0], [-0.1, 0.1, -0.0, 20.0, -0.0, 0.0], [0.0, 0.0, 0.0, -0.0, 20.0, -0.3], [-0.0, -0.0, 0.0, 0.0, -0.3, 6.1]], 'warnings': [], 'nsites': 4}",0,96,136,1.93,0.22,234.24
83,mp-755013,Li5TaO5,"{'Li': 5.0, 'Ta': 1.0, 'O': 5.0}",0.536635358,4.429785677,"{'G_Reuss': 65.0, 'G_VRH': 68.0, 'G_Voigt': 71.0, 'G_Voigt_Reuss_Hill': 68.0, 'K_Reuss': 90.0, 'K_VRH': 93.0, 'K_Voigt': 96.0, 'K_Voigt_Reuss_Hill': 93.0, 'elastic_anisotropy': 0.54, 'elastic_tensor': [[159.0, 69.0, 26.0, 0.0, -3.0, 0.0], [69.0, 265.0, 29.0, 0.0, 9.0, 0.0], [26.0, 29.0, 193.0, 0.0, 14.0, 0.0], [0.0, 0.0, 0.0, 47.0, 0.0, -3.0], [-3.0, 9.0, 14.0, 0.0, 59.0, 0.0], [0.0, 0.0, 0.0, -3.0, 0.0, 86.0]], 'homogeneous_poisson': 0.21, 'poisson_ratio': 0.21, 'universal_anisotropy': 0.54, 'elastic_tensor_original': [[159.36525302695563, 66.08266643905706, 17.452771799465854, 0.0, -1.84098198029691, 0.0], [71.87732086628152, 264.61907153791634, 22.067681374727808, 0.0, 15.43318786281025, 0.0], [34.13633496023178, 35.64673822826893, 193.1672286522562, 0.0, 17.384021577372263, 0.0], [0.0, 0.0, 0.0, 47.431509890717976, 0.0, -3.1965249137856677], [-3.6524695266843006, 1.4627014289837543, 10.002985782032919, 0.0, 58.593351170717796, 0.0], [0.0, 0.0, 0.0, -3.761920456671986, 0.0, 85.63281321998903]], 'compliance_tensor': [[7.193140433566361, -1.818207085476266, -0.740009669138686, -3.2442099536502286e-17, 0.7703536908108399, 7.08428150242894e-16], [-1.8182070854762657, 4.312143846613345, -0.3582574038152384, 2.755121805765762e-16, -0.6293130094531493, 5.899979528651849e-16], [-0.7400096691386858, -0.35825740381523835, 5.413241601180024, 4.8362256768543e-16, -1.239470874062692, -5.2000092361072605e-17], [-3.2442099536502095e-17, 2.7551218057657604e-16, 4.836225676854301e-16, 21.149390354814354, 1.3749590552754808e-15, 0.8406227494905381], [0.7703536908108398, -0.6293130094531492, -1.239470874062692, 1.3749590552754808e-15, 17.50083652509082, 3.4726178787063887e-16], [7.084281502428943e-16, 5.899979528651849e-16, -5.2000092361072716e-17, 0.8406227494905381, 3.4726178787063897e-16, 11.709335567151644]], 'warnings': [], 'nsites': 11}",0,68,93,0.54,0.21,164.56
84,mp-7814,Ta2CS2,"{'Ta': 2.0, 'C': 1.0, 'S': 2.0}",0.115998801,8.080862406,"{'G_Reuss': 1.0, 'G_VRH': 25.0, 'G_Voigt': 49.0, 'G_Voigt_Reuss_Hill': 25.0, 'K_Reuss': 5.0, 'K_VRH': 35.0, 'K_Voigt': 66.0, 'K_Voigt_Reuss_Hill': 35.0, 'elastic_anisotropy': 453.23, 'elastic_tensor': [[242.0, 45.0, 2.0, -1.0, 0.0, 0.0], [45.0, 242.0, 2.0, 1.0, 0.0, 0.0], [2.0, 2.0, 5.0, 0.0, 0.0, 0.0], [-1.0, 1.0, 0.0, 0.0, 0.0, 0.0], [0.0, 0.0, 0.0, 0.0, 0.0, -1.0], [0.0, 0.0, 0.0, 0.0, -1.0, 99.0]], 'homogeneous_poisson': 0.21, 'poisson_ratio': 0.21, 'universal_anisotropy': 453.23, 'elastic_tensor_original': [[243.02743200569088, 44.26850412295465, 3.461512274839972, 2.5689835288698717, 0.0, 0.0], [44.36547412242211, 243.70376568304115, 3.008102246497336, -6.894482896727567, 0.0, 0.0], [1.741885598792746, 1.741887238978959, 4.745449798584471, 0.0, 0.0, 0.0], [0.06358594342585203, -0.10295840920049079, -0.037815871949435385, 0.5006873348788313, 0.0, 0.0], [6.566665904955751e-05, 9.396665576901543e-05, 0.0001703733135748802, -3.9109995464358616e-05, -0.006956505859907575, -0.03417188270368905], [1.0779999687723823e-05, 1.2016666315976535e-05, 7.216666455476138e-06, 7.499999780459311e-06, 0.62722557498065, 97.52292361646951]], 'compliance_tensor': [[4.5, -1.0, -1.8, 30.1, -0.0, 0.0], [-1.0, 4.5, -1.8, -30.1, 0.0, 0.0], [-1.8, -1.8, 212.7, -0.0, 0.0, -0.0], [30.1, -30.1, -0.0, 4380.0, 0.0, 0.0], [0.0, 0.0, 0.0, 0.0, 4380.0, 60.1], [0.0, 0.0, -0.0, 0.0, 60.1, 11.0]], 'warnings': ['One or more K, G below 2 GPa'], 'nsites': 5}",0,25,35,453.23,0.21,60.5
85,mp-861908,TaTiRu2,"{'Ta': 1.0, 'Ti': 1.0, 'Ru': 2.0}",0.118932407,11.63238221,"{'G_Reuss': 79.0, 'G_VRH': 79.0, 'G_Voigt': 80.0, 'G_Voigt_Reuss_Hill': 79.0, 'K_Reuss': 231.0, 'K_VRH': 231.0, 'K_Voigt': 231.0, 'K_Voigt_Reuss_Hill': 231.0, 'elastic_anisotropy': 0.06, 'elastic_tensor': [[324.0, 185.0, 185.0, 0.0, 0.0, 0.0], [185.0, 324.0, 185.0, 0.0, 0.0, 0.0], [185.0, 185.0, 324.0, 0.0, 0.0, 0.0], [0.0, 0.0, 0.0, 87.0, 0.0, 0.0], [0.0, 0.0, 0.0, 0.0, 87.0, 0.0], [0.0, 0.0, 0.0, 0.0, 0.0, 87.0]], 'homogeneous_poisson': 0.35, 'poisson_ratio': 0.35, 'universal_anisotropy': 0.06, 'elastic_tensor_original': [[323.94174765303734, 184.70576090752553, 184.70576090752553, 0.0, 0.0, 0.0], [184.69354088937325, 323.93009555754224, 184.69354088937325, 0.0, 0.0, 0.0], [184.70519010457372, 184.70519010457372, 323.94159290797927, 0.0, 0.0, 0.0], [7.393174558290955e-06, 1.7131753231050864e-06, 1.4013163650346954e-05, 86.64168419678533, 0.0, 0.0], [7.049849869487663e-06, 2.5998396281843472e-06, 1.0619814507536676e-05, 0.0, 86.64168264354022, 0.0], [-8.888036565362239e-05, -4.592709304340181e-05, -5.619707411662341e-05, 0.0, 0.0, 86.64166361018295]], 'compliance_tensor': [[5.3, -1.9, -1.9, 0.0, -0.0, 0.0], [-1.9, 5.3, -1.9, 0.0, 0.0, -0.0], [-1.9, -1.9, 5.3, -0.0, 0.0, 0.0], [0.0, 0.0, -0.0, 11.5, -0.0, -0.0], [-0.0, 0.0, 0.0, -0.0, 11.5, -0.0], [0.0, -0.0, 0.0, -0.0, -0.0, 11.5]], 'warnings': [], 'nsites': 4}",0,79,231,0.06,0.35,213.3
86,mp-861912,TaTiTc2,"{'Ta': 1.0, 'Ti': 1.0, 'Tc': 2.0}",0.132783073,11.26501308,"{'G_Reuss': 99.0, 'G_VRH': 101.0, 'G_Voigt': 103.0, 'G_Voigt_Reuss_Hill': 101.0, 'K_Reuss': 229.0, 'K_VRH': 229.0, 'K_Voigt': 229.0, 'K_Voigt_Reuss_Hill': 229.0, 'elastic_anisotropy': 0.24, 'elastic_tensor': [[405.0, 141.0, 141.0, 0.0, 0.0, 0.0], [141.0, 405.0, 141.0, 0.0, 0.0, 0.0], [141.0, 141.0, 405.0, 0.0, 0.0, 0.0], [0.0, 0.0, 0.0, 84.0, 0.0, 0.0], [0.0, 0.0, 0.0, 0.0, 84.0, 0.0], [0.0, 0.0, 0.0, 0.0, 0.0, 84.0]], 'homogeneous_poisson': 0.31, 'poisson_ratio': 0.31, 'universal_anisotropy': 0.24, 'elastic_tensor_original': [[405.00133400280885, 141.0395279466178, 141.0395279466178, 0.0, 0.0, 0.0], [141.04492936386092, 405.00525715287966, 141.04492936386092, 0.0, 0.0, 0.0], [141.04431660200484, 141.04431660200484, 405.00439491866786, 0.0, 0.0, 0.0], [-4.744332995126388e-05, -2.939332403399265e-05, -3.2819995720928065e-05, 84.42819865856235, 0.0, 0.0], [-3.607998543358785e-05, -8.377001424885196e-05, -6.794001029380065e-05, 0.0, 84.42803904512351, 0.0], [-4.166668925727922e-05, -4.068335341395792e-05, -7.363337824570149e-05, 0.0, 0.0, 84.42810714849703]], 'compliance_tensor': [[3.0, -0.8, -0.8, -0.0, 0.0, 0.0], [-0.8, 3.0, -0.8, 0.0, -0.0, 0.0], [-0.8, -0.8, 3.0, 0.0, 0.0, -0.0], [-0.0, 0.0, 0.0, 11.8, -0.0, -0.0], [0.0, -0.0, 0.0, -0.0, 11.8, -0.0], [0.0, 0.0, -0.0, -0.0, -0.0, 11.8]], 'warnings': [], 'nsites': 4}",0,101,229,0.24,0.31,264.62
87,mp-861951,LiTaRh2,"{'Li': 1.0, 'Ta': 1.0, 'Rh': 2.0}",0.152148207,11.26820786,"{'G_Reuss': 64.0, 'G_VRH': 64.0, 'G_Voigt': 65.0, 'G_Voigt_Reuss_Hill': 64.0, 'K_Reuss': 192.0, 'K_VRH': 192.0, 'K_Voigt': 192.0, 'K_Voigt_Reuss_Hill': 192.0, 'elastic_anisotropy': 0.13, 'elastic_tensor': [[263.0, 157.0, 157.0, 0.0, 0.0, 0.0], [157.0, 263.0, 157.0, 0.0, 0.0, 0.0], [157.0, 157.0, 263.0, 0.0, 0.0, 0.0], [0.0, 0.0, 0.0, 73.0, 0.0, 0.0], [0.0, 0.0, 0.0, 0.0, 73.0, 0.0], [0.0, 0.0, 0.0, 0.0, 0.0, 73.0]], 'homogeneous_poisson': 0.35, 'poisson_ratio': 0.35, 'universal_anisotropy': 0.13, 'elastic_tensor_original': [[262.8664627616263, 157.10432689929374, 157.10432689929374, 0.30525287360898096, -0.3042346553509101, 0.3042346553509101], [157.10432689929374, 262.8664627616263, 157.10432689929374, -0.30423465535091726, -0.3052528736089863, -0.30422345515007665], [157.10432689929374, 157.10432689929374, 262.8664627616263, -0.30422345515008203, -0.30422345515008203, -0.30525287360898096], [0.0, 0.0, 0.0, 73.43617500468501, 0.0, 0.0], [0.0, 0.0, 0.0, 0.0, 73.43617500468501, 0.0], [0.0, 0.0, 0.0, 0.0, 0.0, 73.43617500468501]], 'compliance_tensor': [[6.9, -2.6, -2.6, -0.0, 0.0, 0.0], [-2.6, 6.9, -2.6, 0.0, -0.0, -0.0], [-2.6, -2.6, 6.9, 0.0, 0.0, -0.0], [-0.0, 0.0, 0.0, 13.6, 0.0, 0.0], [0.0, -0.0, 0.0, 0.0, 13.6, 0.0], [0.0, -0.0, -0.0, 0.0, 0.0, 13.6]], 'warnings': [], 'nsites': 4}",0,64,192,0.13,0.35,172.8
88,mp-862445,TaAlOs2,"{'Ta': 1.0, 'Al': 1.0, 'Os': 2.0}",0.101800569,16.16905509,"{'G_Reuss': 143.0, 'G_VRH': 143.0, 'G_Voigt': 143.0, 'G_Voigt_Reuss_Hill': 143.0, 'K_Reuss': 272.0, 'K_VRH': 272.0, 'K_Voigt': 272.0, 'K_Voigt_Reuss_Hill': 272.0, 'elastic_anisotropy': 0.0, 'elastic_tensor': [[459.0, 178.0, 178.0, 0.0, 0.0, 0.0], [178.0, 459.0, 178.0, 0.0, 0.0, 0.0], [178.0, 178.0, 459.0, 0.0, 0.0, 0.0], [0.0, 0.0, 0.0, 146.0, 0.0, 0.0], [0.0, 0.0, 0.0, 0.0, 146.0, 0.0], [0.0, 0.0, 0.0, 0.0, 0.0, 146.0]], 'homogeneous_poisson': 0.28, 'poisson_ratio': 0.28, 'universal_anisotropy': 0.0, 'elastic_tensor_original': [[458.5059030226089, 178.33124595593918, 178.33124595593918, 0.0, 0.0, 0.0], [178.32918168928256, 458.50426557853586, 178.32918168928256, 0.0, 0.0, 0.0], [178.83548850695763, 178.8352858210945, 459.0711979525991, 1.2410975296270028e-05, -3.6290573968091678e-06, 2.68069046383086e-05], [-4.0709980321604146e-05, -4.715331661088528e-05, -4.804664399406621e-05, 145.62480096453106, 0.0, 0.0], [-3.7959905185630675e-05, -5.932320645586439e-05, -5.172988049307146e-05, 0.0, 145.62477416369543, 0.0], [2.4796679234928754e-05, 1.3966703865699264e-05, 4.103363379944123e-06, 0.0, 0.0, 145.62478754614503]], 'compliance_tensor': [[2.8, -0.8, -0.8, -0.0, -0.0, -0.0], [-0.8, 2.8, -0.8, 0.0, -0.0, -0.0], [-0.8, -0.8, 2.8, 0.0, 0.0, 0.0], [-0.0, 0.0, 0.0, 6.9, 0.0, -0.0], [-0.0, -0.0, 0.0, 0.0, 6.9, 0.0], [-0.0, 0.0, 0.0, 0.0, 0.0, 6.9]], 'warnings': [], 'nsites': 4}",0,143,272,0,0.28,366.08
89,mp-862446,TaAlRu2,"{'Ta': 1.0, 'Al': 1.0, 'Ru': 2.0}",0.101279786,11.46113479,"{'G_Reuss': 131.0, 'G_VRH': 131.0, 'G_Voigt': 131.0, 'G_Voigt_Reuss_Hill': 131.0, 'K_Reuss': 239.0, 'K_VRH': 239.0, 'K_Voigt': 239.0, 'K_Voigt_Reuss_Hill': 239.0, 'elastic_anisotropy': 0.01, 'elastic_tensor': [[424.0, 147.0, 147.0, 0.0, 0.0, 0.0], [147.0, 424.0, 147.0, 0.0, 0.0, 0.0], [147.0, 147.0, 424.0, 0.0, 0.0, 0.0], [0.0, 0.0, 0.0, 127.0, 0.0, 0.0], [0.0, 0.0, 0.0, 0.0, 127.0, 0.0], [0.0, 0.0, 0.0, 0.0, 0.0, 127.0]], 'homogeneous_poisson': 0.27, 'poisson_ratio': 0.27, 'universal_anisotropy': 0.01, 'elastic_tensor_original': [[423.73432893834, 146.9283640668631, 146.9283640668631, 0.0, 0.0, 0.0], [146.92702703667592, 423.73258245680216, 146.92702703667592, 0.0, 0.0, 0.0], [146.92682964346997, 146.92682964346997, 423.73280366970926, 0.0, 0.0, 0.0], [0.0001808534442911297, 0.00016055676517297103, 0.00016102343212430674, 126.70583954944009, 0.0, 0.0], [0.0004050469151719168, 0.0004097202513715405, 0.00040971691803513626, 0.0, 126.70598327619496, 0.0], [-4.4833360838846835e-05, -9.175672296068231e-05, -5.8710036018121827e-05, 0.0, 0.0, 126.7059466295058]], 'compliance_tensor': [[2.9, -0.7, -0.7, 0.0, 0.0, 0.0], [-0.7, 2.9, -0.7, 0.0, 0.0, -0.0], [-0.7, -0.7, 2.9, 0.0, 0.0, 0.0], [0.0, 0.0, 0.0, 7.9, 0.0, 0.0], [0.0, 0.0, 0.0, 0.0, 7.9, 0.0], [0.0, -0.0, 0.0, 0.0, 0.0, 7.9]], 'warnings': [], 'nsites': 4}",0,131,239,0.01,0.27,332.74
90,mp-862699,ScTaOs2,"{'Sc': 1.0, 'Ta': 1.0, 'Os': 2.0}",0.11887771,15.411535,"{'G_Reuss': 121.0, 'G_VRH': 122.0, 'G_Voigt': 123.0, 'G_Voigt_Reuss_Hill': 122.0, 'K_Reuss': 235.0, 'K_VRH': 235.0, 'K_Voigt': 235.0, 'K_Voigt_Reuss_Hill': 235.0, 'elastic_anisotropy': 0.05, 'elastic_tensor': [[419.0, 143.0, 143.0, 0.0, 0.0, 0.0], [143.0, 419.0, 143.0, 0.0, 0.0, 0.0], [143.0, 143.0, 419.0, 0.0, 0.0, 0.0], [0.0, 0.0, 0.0, 112.0, 0.0, 0.0], [0.0, 0.0, 0.0, 0.0, 112.0, 0.0], [0.0, 0.0, 0.0, 0.0, 0.0, 112.0]], 'homogeneous_poisson': 0.28, 'poisson_ratio': 0.28, 'universal_anisotropy': 0.05, 'elastic_tensor_original': [[417.7470538767542, 142.20034300582495, 142.20034300582495, 0.0, 0.0, 0.0], [143.720930988066, 420.77974471401797, 143.720930988066, 0.0, 0.0, 0.0], [142.1969276993548, 142.1969276993548, 417.746736369052, 0.0, 0.0, 0.0], [-6.099325707502151e-05, -1.1186652680868237e-05, -3.364662459979401e-05, 112.40817639363398, 0.0, 0.0], [-1.0486653556826619e-05, -2.7999965008475804e-06, 9.263321751119364e-06, 0.0, 112.40840592001366, 0.0], [-3.9263284244401853e-05, -9.973320863834286e-06, -1.629664629315966e-05, 0.0, 0.0, 112.40811126371538]], 'compliance_tensor': [[2.9, -0.7, -0.7, 0.0, 0.0, -0.0], [-0.7, 2.9, -0.7, -0.0, 0.0, 0.0], [-0.7, -0.7, 2.9, 0.0, -0.0, 0.0], [0.0, -0.0, 0.0, 8.9, -0.0, -0.0], [0.0, 0.0, -0.0, -0.0, 8.9, -0.0], [-0.0, 0.0, 0.0, -0.0, -0.0, 8.9]], 'warnings': [], 'nsites': 4}",0,122,235,0.05,0.28,312.32