,mp_id,Formula,Composition,IPF,Density,Elastic_Tensor,E_above_Hull,G_VRH,K_VRH,Elastic_Anisotropy,poisson_ratio,Y_Modulus
104,mp-977561,LiTaIr2,"{'Li': 1.0, 'Ta': 1.0, 'Ir': 2.0}",0.155444959,16.20939464,"{'G_Reuss': 106.0, 'G_VRH': 108.0, 'G_Voigt': 110.0, 'G_Voigt_Reuss_Hill': 108.0, 'K_Reuss': 269.0, 'K_VRH': 269.0, 'K_Voigt': 269.0, 'K_Voigt_Reuss_Hill': 269.0, 'elastic_anisotropy': 0.2, 'elastic_tensor': [[382.0, 213.0, 213.0, 0.0, 0.0, 0.0], [213.0, 382.0, 213.0, 0.0, 0.0, 0.0], [213.0, 213.0, 382.0, 0.0, 0.0, 0.0], [0.0, 0.0, 0.0, 127.0, 0.0, 0.0], [0.0, 0.0, 0.0, 0.0, 127.0, 0.0], [0.0, 0.0, 0.0, 0.0, 0.0, 127.0]], 'homogeneous_poisson': 0.32, 'poisson_ratio': 0.32, 'universal_anisotropy': 0.2, 'elastic_tensor_original': [[382.24877527968005, 212.93199475107468, 212.93199475107468, 0.32119876525719593, 0.6020588130529885, -0.6020588130529885], [212.93199475107468, 382.24877527968005, 212.93199475107468, 0.6020588130530048, -0.32119876525718427, 0.6020566130902169], [212.93199475107468, 212.93199475107468, 382.24877527968005, 0.6020566130902285, 0.6020566130902285, -0.3211987652571959], [0.0, 0.0, 0.0, 126.5410772016688, 0.0, 0.0], [0.0, 0.0, 0.0, 0.0, 126.5410772016688, 0.0], [0.0, 0.0, 0.0, 0.0, 0.0, 126.5410772016688]], 'compliance_tensor': [[4.3, -1.6, -1.6, 0.0, -0.0, -0.0], [-1.6, 4.3, -1.6, -0.0, 0.0, 0.0], [-1.6, -1.6, 4.3, -0.0, -0.0, 0.0], [0.0, -0.0, -0.0, 7.9, 0.0, -0.0], [-0.0, 0.0, -0.0, 0.0, 7.9, -0.0], [-0.0, 0.0, 0.0, -0.0, -0.0, 7.9]], 'warnings': [], 'nsites': 4}",0,108,269,0.2,0.32,285.12
105,mp-1029442,Mg2TaN3,"{'Mg': 2.0, 'Ta': 1.0, 'N': 3.0}",0.133101173,5.567911528,"{'G_Reuss': 51.0, 'G_VRH': 53.0, 'G_Voigt': 56.0, 'G_Voigt_Reuss_Hill': 53.0, 'K_Reuss': 120.0, 'K_VRH': 122.0, 'K_Voigt': 125.0, 'K_Voigt_Reuss_Hill': 122.0, 'elastic_anisotropy': 0.53, 'elastic_tensor': [[213.0, 89.0, 103.0, 0.0, 0.0, 0.0], [89.0, 212.0, 89.0, 0.0, 0.0, 0.0], [103.0, 89.0, 138.0, 0.0, 0.0, 0.0], [0.0, 0.0, 0.0, 66.0, 0.0, 0.0], [0.0, 0.0, 0.0, 0.0, 67.0, 0.0], [0.0, 0.0, 0.0, 0.0, 0.0, 51.0]], 'homogeneous_poisson': 0.31, 'poisson_ratio': 0.31, 'universal_anisotropy': 0.53, 'elastic_tensor_original': [[212.99620664023814, 89.64463506105433, 103.35843197422709, 0.0, 0.0, 0.0], [89.28372826644951, 212.3975065208057, 89.1243977080741, 0.0, 0.0, 0.0], [102.6947377922373, 89.21079188155446, 138.3364397090521, 0.0, 0.0, 0.0], [1.751667024570519e-05, 1.999334783772402e-05, 1.5666929317417392e-07, 65.92618351753768, 0.0, 0.0], [3.9200008837732366e-06, 4.095000923957778e-05, -3.393000765575883e-05, 0.0, 66.9074016333358, 0.0], [-1.066667009158717e-06, -4.1833346793786105e-06, -9.76333647423647e-06, 0.0, 0.0, 51.25636717840286]], 'compliance_tensor': [[7.5, -1.1, -4.9, 0.0, 0.0, 0.0], [-1.1, 6.6, -3.4, 0.0, 0.0, 0.0], [-4.9, -3.4, 13.1, 0.0, 0.0, 0.0], [0.0, 0.0, 0.0, 15.2, 0.0, 0.0], [0.0, 0.0, 0.0, 0.0, 14.9, 0.0], [0.0, 0.0, 0.0, 0.0, 0.0, 19.5]], 'warnings': [], 'nsites': 12}",0,53,122,0.53,0.31,138.86
106,mp-12931,SmTaO4,"{'Sm': 1.0, 'Ta': 1.0, 'O': 4.0}",0.551188455,8.298047364,"{'G_Reuss': 67.0, 'G_VRH': 68.0, 'G_Voigt': 70.0, 'G_Voigt_Reuss_Hill': 68.0, 'K_Reuss': 145.0, 'K_VRH': 148.0, 'K_Voigt': 151.0, 'K_Voigt_Reuss_Hill': 148.0, 'elastic_anisotropy': 0.29, 'elastic_tensor': [[280.0, 89.0, 116.0, 0.0, -10.0, 0.0], [89.0, 194.0, 99.0, 0.0, 16.0, 0.0], [116.0, 99.0, 278.0, 0.0, -13.0, 0.0], [0.0, 0.0, 0.0, 66.0, 0.0, 9.0], [-10.0, 16.0, -13.0, 0.0, 71.0, 0.0], [0.0, 0.0, 0.0, 9.0, 0.0, 64.0]], 'homogeneous_poisson': 0.3, 'poisson_ratio': 0.3, 'universal_anisotropy': 0.29, 'elastic_tensor_original': [[279.65481083799153, 89.50537010426991, 114.88467570083478, 0.0, -6.835195608995367, 0.0], [89.31723115719244, 194.1859714266528, 97.41267708325408, 0.0, 16.70715394752941, 0.0], [116.31726229665634, 100.18737374331121, 277.8664186706447, 0.0, -8.530070348235652, 0.0], [0.0, 0.0, 0.0, 65.51780148101554, 0.0, 8.721708532992853], [-13.387153681864534, 15.909902695087974, -17.90507071541898, 0.0, 71.21788213318754, 0.0], [0.0, 0.0, 0.0, 8.36625094363758, 0.0, 63.794032413470724]], 'compliance_tensor': [[4.648582355608675, -1.5110808232577422, -1.3608615917042337, 0.0, 0.7531028522969796, 0.0], [-1.5110808232577417, 7.035754063237587, -1.9775392912869438, 0.0, -2.1925340160390854, 0.0], [-1.3608615917042346, -1.9775392912869438, 4.924207510789651, 0.0, 1.1737755865780868, 0.0], [0.0, 0.0, 0.0, 15.53364713957146, 0.0, -2.0804551801671654], [0.7531028522969797, -2.1925340160390854, 1.1737755865780868, 0.0, 14.868014315688685, 0.0], [0.0, 0.0, 0.0, -2.080455180167165, 0.0, 15.95478899427594]], 'warnings': ['Structure contains a rare earth element'], 'nsites': 12}",0,68,148,0.29,0.3,176.8
107,mp-14753,Li7TaN4,"{'Li': 7.0, 'Ta': 1.0, 'N': 4.0}",0.233227781,3.96754266,"{'G_Reuss': 62.0, 'G_VRH': 66.0, 'G_Voigt': 69.0, 'G_Voigt_Reuss_Hill': 66.0, 'K_Reuss': 83.0, 'K_VRH': 83.0, 'K_Voigt': 83.0, 'K_Voigt_Reuss_Hill': 83.0, 'elastic_anisotropy': 0.54, 'elastic_tensor': [[212.0, 18.0, 18.0, 0.0, 0.0, 0.0], [18.0, 212.0, 18.0, 0.0, 0.0, 0.0], [18.0, 18.0, 212.0, 0.0, 0.0, 0.0], [0.0, 0.0, 0.0, 50.0, 0.0, 0.0], [0.0, 0.0, 0.0, 0.0, 50.0, 0.0], [0.0, 0.0, 0.0, 0.0, 0.0, 50.0]], 'homogeneous_poisson': 0.19, 'poisson_ratio': 0.19, 'universal_anisotropy': 0.54, 'elastic_tensor_original': [[212.27398151309535, 18.117444948441655, 18.154220311103288, 0.0, 0.0, 0.0], [18.112021268088274, 212.27829578583535, 18.071749056069883, 0.0, 0.0, 0.0], [18.04528857195828, 18.088185577380887, 212.24647089245985, 0.0, 0.0, 0.0], [-0.0002298829455810894, -0.0002913396411061766, -0.0005827297815604674, 50.2460486884162, 0.0, 0.0], [0.019560274769709996, 0.018691458915658196, 0.022281814993193916, 0.0, 50.246550728625685, 0.0], [-0.016859464582432107, -0.015252522693157015, -0.015536172770496839, 0.0, 0.0, 50.24423574543362]], 'compliance_tensor': [[4.8, -0.4, -0.4, 0.0, 0.0, 0.0], [-0.4, 4.8, -0.4, 0.0, -0.0, 0.0], [-0.4, -0.4, 4.8, 0.0, 0.0, 0.0], [0.0, 0.0, 0.0, 19.9, 0.0, 0.0], [0.0, -0.0, 0.0, 0.0, 19.9, 0.0], [0.0, 0.0, 0.0, 0.0, 0.0, 19.9]], 'warnings': [], 'nsites': 96}",0,66,83,0.54,0.19,157.08
108,mp-17481,Mg4Ta2O9,"{'Mg': 4.0, 'Ta': 2.0, 'O': 9.0}",0.543455567,6.0014544,"{'G_Reuss': 74.0, 'G_VRH': 76.0, 'G_Voigt': 78.0, 'G_Voigt_Reuss_Hill': 76.0, 'K_Reuss': 148.0, 'K_VRH': 149.0, 'K_Voigt': 149.0, 'K_Voigt_Reuss_Hill': 149.0, 'elastic_anisotropy': 0.28, 'elastic_tensor': [[271.0, 112.0, 78.0, -14.0, 0.0, 0.0], [112.0, 271.0, 78.0, 14.0, 0.0, 0.0], [78.0, 78.0, 263.0, 0.0, 0.0, 0.0], [-14.0, 14.0, 0.0, 66.0, 0.0, 0.0], [0.0, 0.0, 0.0, 0.0, 66.0, -14.0], [0.0, 0.0, 0.0, 0.0, -14.0, 80.0]], 'homogeneous_poisson': 0.28, 'poisson_ratio': 0.28, 'universal_anisotropy': 0.28, 'elastic_tensor_original': [[271.2877481659725, 111.77669059214972, 78.02352818881744, 13.493377181347205, 0.0, 0.0], [111.61314642373046, 271.4921977965339, 77.97591928528631, -14.019111632781552, 0.0, 0.0], [78.07927254725647, 78.0792979449645, 263.12500530198406, 0.0, 0.0, 0.0], [13.7654216865438, -13.778257495565072, -0.34684952703291067, 66.37544181297761, 0.0, 0.0], [-2.9966679530759807e-06, -2.3880010270097823e-05, -2.9683346098815413e-05, -1.4656672970323165e-05, 66.43728668023729, 13.721907544897268], [-1.1180005399945354e-05, -1.562334089400929e-05, -3.410001647090252e-06, -5.643336063217838e-06, 13.705724603159906, 79.18724944573741]], 'compliance_tensor': [[4.7, -1.8, -0.9, 1.3, -0.0, 0.0], [-1.8, 4.7, -0.9, -1.3, 0.0, 0.0], [-0.9, -0.9, 4.3, 0.0, -0.0, -0.0], [1.3, -1.3, 0.0, 15.6, 0.0, 0.0], [-0.0, 0.0, -0.0, 0.0, 15.6, 2.7], [0.0, 0.0, -0.0, 0.0, 2.7, 13.0]], 'warnings': [], 'nsites': 30}",0,76,149,0.28,0.28,194.56
109,mp-21336,TaFeP,"{'Ta': 1.0, 'Fe': 1.0, 'P': 1.0}",0.146645854,11.64010825,"{'G_Reuss': 141.0, 'G_VRH': 143.0, 'G_Voigt': 144.0, 'G_Voigt_Reuss_Hill': 143.0, 'K_Reuss': 264.0, 'K_VRH': 264.0, 'K_Voigt': 264.0, 'K_Voigt_Reuss_Hill': 264.0, 'elastic_anisotropy': 0.1, 'elastic_tensor': [[443.0, 154.0, 193.0, 0.0, 0.0, 0.0], [154.0, 444.0, 191.0, 0.0, 0.0, 0.0], [193.0, 191.0, 412.0, 0.0, 0.0, 0.0], [0.0, 0.0, 0.0, 164.0, 0.0, 0.0], [0.0, 0.0, 0.0, 0.0, 154.0, 0.0], [0.0, 0.0, 0.0, 0.0, 0.0, 150.0]], 'homogeneous_poisson': 0.27, 'poisson_ratio': 0.27, 'universal_anisotropy': 0.1, 'elastic_tensor_original': [[412.0785572049439, 195.2173417927589, 192.73395984480854, 0.0, 0.0, 0.0], [191.5726330515263, 442.6726266984144, 154.30163646266737, 0.0, 0.0, 0.0], [189.1341223888759, 153.5774860367254, 444.18211696233965, 0.0, 0.0, 0.0], [0.0007201598941629661, 0.000640886639327381, 0.000737556585628536, 150.01504566556505, 0.0, 0.0], [-0.004034499246300465, -0.004035102581022133, -0.004092442712434369, 0.0, 163.70932941071308, 0.0], [-0.03128949327424387, -0.031627394029551274, -0.03067065855764257, 0.0, 0.0, 153.76907437427607]], 'compliance_tensor': [[2.9, -0.5, -1.1, 0.0, 0.0, 0.0], [-0.5, 2.9, -1.1, 0.0, -0.0, 0.0], [-1.1, -1.1, 3.5, 0.0, -0.0, 0.0], [0.0, 0.0, 0.0, 6.1, 0.0, 0.0], [0.0, -0.0, -0.0, 0.0, 6.5, 0.0], [0.0, 0.0, 0.0, 0.0, 0.0, 6.7]], 'warnings': [], 'nsites': 12}",0,143,264,0.1,0.27,363.22
110,mp-29964,La3(TaN3)2,"{'La': 3.0, 'Ta': 2.0, 'N': 6.0}",0.184518594,8.48983442,"{'G_Reuss': 86.0, 'G_VRH': 87.0, 'G_Voigt': 89.0, 'G_Voigt_Reuss_Hill': 87.0, 'K_Reuss': 167.0, 'K_VRH': 167.0, 'K_Voigt': 168.0, 'K_Voigt_Reuss_Hill': 167.0, 'elastic_anisotropy': 0.22, 'elastic_tensor': [[298.0, 123.0, 102.0, 0.0, 0.0, 0.0], [123.0, 298.0, 102.0, 0.0, 0.0, 0.0], [102.0, 102.0, 263.0, 0.0, 0.0, 0.0], [0.0, 0.0, 0.0, 72.0, 0.0, 0.0], [0.0, 0.0, 0.0, 0.0, 72.0, 0.0], [0.0, 0.0, 0.0, 0.0, 0.0, 124.0]], 'homogeneous_poisson': 0.28, 'poisson_ratio': 0.28, 'universal_anisotropy': 0.22, 'elastic_tensor_original': [[298.357068655246, 122.58991375362243, 96.09022684657455, 4.800084574331988e-06, -4.800084574331988e-06, 0.0], [122.58991375362243, 298.357068655246, 96.09022684657455, -4.800084574923173e-06, -4.800084573740805e-06, 0.0], [106.92867220045399, 106.92867220045399, 263.08320028206157, 1.3000091766548347e-05, -1.3000091766548347e-05, 0.0], [0.0, 0.0, 0.0, 72.00921267312312, -9.999946587613673e-08, 0.0], [0.0, 0.0, 0.0, 9.999946586720195e-08, 72.00921267312312, 0.0], [1.2396280347183966, -1.2396280347183966, 0.0, 0.0, -9.999945425833478e-08, 123.95590800947174]], 'compliance_tensor': [[4.304044780957364, -1.385300310619599, -1.1261842039557621, 1.7045821396680133e-17, -5.296031271210054e-17, 1.9108937657163375e-18], [-1.385300310619599, 4.304044780957364, -1.1261842039557621, -5.2960312712100533e-17, 1.704582139668013e-17, -1.9108937657163363e-18], [-1.1261842039557621, -1.1261842039557621, 4.670144942337576, -7.158147221315253e-17, -7.158147221315253e-17, 1.3649271016860667e-34], [1.7045821396680126e-17, -5.2960312712100546e-17, -7.158147221315251e-17, 13.887111980231973, 8.469744817164968e-35, -4.9633676918696857e-17], [-5.2960312712100546e-17, 1.7045821396680126e-17, -7.158147221315251e-17, 8.469744817164966e-35, 13.887111980231973, -4.963367689398443e-17], [1.910893765716337e-18, -1.910893765716337e-18, 1.364927101686066e-34, -4.963367691869685e-17, -4.963367689398443e-17, 8.067384734284609]], 'warnings': ['Structure contains a rare earth element'], 'nsites': 11}",0,87,167,0.22,0.28,222.72
111,mp-3033,RbTaO3,"{'Rb': 1.0, 'Ta': 1.0, 'O': 3.0}",0.541333927,6.06397592,"{'G_Reuss': 24.0, 'G_VRH': 27.0, 'G_Voigt': 30.0, 'G_Voigt_Reuss_Hill': 27.0, 'K_Reuss': 64.0, 'K_VRH': 69.0, 'K_Voigt': 73.0, 'K_Voigt_Reuss_Hill': 69.0, 'elastic_anisotropy': 1.32, 'elastic_tensor': [[132.0, 58.0, 44.0, 0.0, -1.0, 0.0], [58.0, 155.0, 39.0, 0.0, -3.0, 0.0], [44.0, 39.0, 88.0, 0.0, -14.0, 0.0], [0.0, 0.0, 0.0, 17.0, 0.0, 7.0], [-1.0, -3.0, -14.0, 0.0, 22.0, 0.0], [0.0, 0.0, 0.0, 7.0, 0.0, 33.0]], 'homogeneous_poisson': 0.33, 'poisson_ratio': 0.33, 'universal_anisotropy': 1.32, 'elastic_tensor_original': [[154.89376706520534, 58.679440842454206, 39.17037459622241, 1.5046020409531344, 0.0, 0.0], [58.71968350719178, 132.0487673900567, 46.87542525236318, -2.98607718939129, 0.0, 0.0], [39.0904918733063, 46.908119933737055, 83.52061553736709, 13.54933275535441, 0.0, 0.0], [1.1246562009712502, -2.290541779784699, 13.528596443560923, 24.42736632029472, 0.0, 0.0], [-0.005449457524609299, -0.0005930067600274283, 0.016595809279448162, -0.010866825044165213, 18.695588140029702, -8.047933463703021], [-0.02939583737054683, -0.045027539517398886, -0.11665438268793622, 0.026425070295876027, -8.219094428807374, 32.178695652743436]], 'compliance_tensor': [[10.2, -2.8, -4.4, 0.0, -2.8, 0.0], [-2.8, 8.1, -2.3, 0.0, -0.5, 0.0], [-4.4, -2.3, 16.1, 0.0, 9.9, 0.0], [0.0, 0.0, 0.0, 62.4, 0.0, -12.9], [-2.8, -0.5, 9.9, 0.0, 51.7, 0.0], [0.0, 0.0, 0.0, -12.9, 0.0, 32.6]], 'warnings': [], 'nsites': 20}",0,27,69,1.32,0.33,71.82
112,mp-3203,NdTaO4,"{'Nd': 1.0, 'Ta': 1.0, 'O': 4.0}",0.548024467,7.951862761,"{'G_Reuss': 64.0, 'G_VRH': 66.0, 'G_Voigt': 68.0, 'G_Voigt_Reuss_Hill': 66.0, 'K_Reuss': 144.0, 'K_VRH': 146.0, 'K_Voigt': 149.0, 'K_Voigt_Reuss_Hill': 146.0, 'elastic_anisotropy': 0.3, 'elastic_tensor': [[269.0, 90.0, 116.0, 0.0, -10.0, 0.0], [90.0, 194.0, 101.0, 0.0, 18.0, 0.0], [116.0, 101.0, 267.0, 0.0, -14.0, 0.0], [0.0, 0.0, 0.0, 64.0, 0.0, 9.0], [-10.0, 18.0, -14.0, 0.0, 69.0, 0.0], [0.0, 0.0, 0.0, 9.0, 0.0, 64.0]], 'homogeneous_poisson': 0.3, 'poisson_ratio': 0.3, 'universal_anisotropy': 0.3, 'elastic_tensor_original': [[269.02873693498873, 93.6748287656314, 114.76286279593623, 0.0, -8.677449912893982, 0.0], [85.89896066135087, 193.53290146137294, 97.07016400872457, 0.0, 16.733568731472506, 0.0], [116.27365585457471, 104.83193940128929, 266.77333700023166, 0.0, -10.718546624501888, 0.0], [0.0, 0.0, 0.0, 64.02037751512708, 0.0, 9.535741926587356], [-10.513604501589304, 18.830599759124645, -17.794990082750775, 0.0, 69.18090895814196, 0.0], [0.0, 0.0, 0.0, 9.395970516730952, 0.0, 64.32752878322844]], 'compliance_tensor': [[4.908862931545116, -1.5719933729663633, -1.4892126212410226, 0.0, 0.7779272849755308, 0.0], [-1.5719933729663635, 7.284069851915162, -2.2118554653525764, 0.0, -2.5460450344596164, 0.0], [-1.489212621241023, -2.2118554653525764, 5.308263750920959, 0.0, 1.4559448612728454, 0.0], [0.0, 0.0, 0.0, 15.967142031429592, 0.0, -2.349627718769393], [0.7779272849755308, -2.546045034459616, 1.4559448612728452, 0.0, 15.517074726208767, 0.0], [0.0, 0.0, 0.0, -2.349627718769393, 0.0, 15.891485889667162]], 'warnings': ['Structure contains a rare earth element'], 'nsites': 12}",0,66,146,0.3,0.3,171.6
113,mp-3444,ErTaO4,"{'Er': 1.0, 'Ta': 1.0, 'O': 4.0}",0.544447452,9.223589274,"{'G_Reuss': 63.0, 'G_VRH': 67.0, 'G_Voigt': 71.0, 'G_Voigt_Reuss_Hill': 67.0, 'K_Reuss': 121.0, 'K_VRH': 134.0, 'K_Voigt': 147.0, 'K_Voigt_Reuss_Hill': 134.0, 'elastic_anisotropy': 0.86, 'elastic_tensor': [[311.0, 77.0, 118.0, 0.0, -11.0, 0.0], [77.0, 141.0, 86.0, 0.0, 19.0, 0.0], [118.0, 86.0, 307.0, 0.0, -14.0, 0.0], [0.0, 0.0, 0.0, 68.0, 0.0, 7.0], [-11.0, 19.0, -14.0, 0.0, 75.0, 0.0], [0.0, 0.0, 0.0, 7.0, 0.0, 54.0]], 'homogeneous_poisson': 0.28, 'poisson_ratio': 0.28, 'universal_anisotropy': 0.86, 'elastic_tensor_original': [[310.6540710528385, 72.62135148361352, 113.98822513441814, 0.0, -10.82973914028457, 0.0], [81.9566973256657, 140.55301309216046, 79.3126677065078, 0.0, 22.794136835441513, 0.0], [122.24890982482391, 92.02299895316214, 307.43928922151724, 0.0, -12.346864815820156, 0.0], [0.0, 0.0, 0.0, 68.44139702189474, 0.0, 6.915908458361935], [-11.371253786155465, 15.919792820296232, -16.51418562832575, 0.0, 74.56484032718744, 0.0], [0.0, 0.0, 0.0, 6.707216163181886, 0.0, 54.251075244039775]], 'compliance_tensor': [[4.075286982717085, -1.7203049886507888, -1.0464365136053584, 0.0, 0.850724840645507, 0.0], [-1.720304988650789, 9.876618280746415, -2.243947027365939, 0.0, -3.2543204417376272, 0.0], [-1.0464365136053586, -2.243947027365939, 4.339457820647423, 0.0, 1.2665882626723182, 0.0], [0.0, 0.0, 0.0, 14.7958844957719, 0.0, -1.8576760838313398], [0.8507248406455072, -3.2543204417376277, 1.2665882626723182, 0.0, 14.62771818141798, 0.0], [0.0, 0.0, 0.0, -1.8576760838313398, 0.0, 18.666106490802232]], 'warnings': ['Structure contains a rare earth element'], 'nsites': 12}",0,67,134,0.86,0.28,171.52
114,mp-3802,Ta4AlC3,"{'Ta': 4.0, 'Al': 1.0, 'C': 3.0}",0.104798042,12.60107853,"{'G_Reuss': 145.0, 'G_VRH': 146.0, 'G_Voigt': 148.0, 'G_Voigt_Reuss_Hill': 146.0, 'K_Reuss': 232.0, 'K_VRH': 233.0, 'K_Voigt': 235.0, 'K_Voigt_Reuss_Hill': 233.0, 'elastic_anisotropy': 0.11, 'elastic_tensor': [[442.0, 151.0, 146.0, 0.0, 0.0, 0.0], [151.0, 442.0, 146.0, 0.0, 0.0, 0.0], [146.0, 146.0, 347.0, 0.0, 0.0, 0.0], [0.0, 0.0, 0.0, 164.0, 0.0, 0.0], [0.0, 0.0, 0.0, 0.0, 164.0, 0.0], [0.0, 0.0, 0.0, 0.0, 0.0, 146.0]], 'homogeneous_poisson': 0.24, 'poisson_ratio': 0.24, 'universal_anisotropy': 0.11, 'elastic_tensor_original': [[439.1226059459304, 147.62214524317136, 154.2002692956918, 0.0, 0.0, -1.5830120352922658e-05], [157.8202268675714, 440.9570256926955, 148.52324665894562, 0.0, 0.0, 0.0], [139.77945418946172, 139.77940364213836, 347.3735479007325, 0.0, 0.0, 0.0], [0.0001742411865620975, 0.00026503260306354664, -0.0002774492355160825, 163.2424511357366, 0.0, 0.0], [0.0, 0.0, 0.0, -1.0533355567676024e-06, 165.11858830195507, 0.0], [0.0, 0.0, 0.0, 0.0, 0.0, 147.97756997263]], 'compliance_tensor': [[2.8, -0.7, -0.9, -0.0, 0.0, 0.0], [-0.7, 2.8, -0.9, 0.0, -0.0, -0.0], [-0.9, -0.9, 3.6, -0.0, -0.0, -0.0], [-0.0, 0.0, -0.0, 6.1, -0.0, -0.0], [0.0, -0.0, -0.0, -0.0, 6.1, 0.0], [0.0, -0.0, -0.0, -0.0, 0.0, 6.9]], 'warnings': [], 'nsites': 16}",0,146,233,0.11,0.24,362.08
115,mp-5377,YTaO4,"{'Y': 1.0, 'Ta': 1.0, 'O': 4.0}",0.533061505,7.289825658,"{'G_Reuss': 63.0, 'G_VRH': 66.0, 'G_Voigt': 69.0, 'G_Voigt_Reuss_Hill': 66.0, 'K_Reuss': 178.0, 'K_VRH': 182.0, 'K_Voigt': 186.0, 'K_Voigt_Reuss_Hill': 182.0, 'elastic_anisotropy': 0.54, 'elastic_tensor': [[331.0, 123.0, 146.0, 0.0, -5.0, 0.0], [123.0, 226.0, 136.0, 0.0, 30.0, 0.0], [146.0, 136.0, 311.0, 0.0, -16.0, 0.0], [0.0, 0.0, 0.0, 66.0, 0.0, 3.0], [-5.0, 30.0, -16.0, 0.0, 70.0, 0.0], [0.0, 0.0, 0.0, 3.0, 0.0, 56.0]], 'homogeneous_poisson': 0.34, 'poisson_ratio': 0.34, 'universal_anisotropy': 0.54, 'elastic_tensor_original': [[331.23889593636017, 134.1242291943881, 128.98198613125265, 0.0, -5.9986963139505765, 0.0], [111.45949741863177, 226.35153870096389, 99.6304786643769, 0.0, 20.96909976730079, 0.0], [162.51408466553244, 171.92694036078177, 310.52137373882607, 0.0, -15.301056304781657, 0.0], [0.0, 0.0, 0.0, 65.62017853701171, 0.0, 2.969464485798562], [-3.9187191399657464, 40.022571531388294, -15.950101511811823, 0.0, 70.1107177867709, 0.0], [0.0, 0.0, 0.0, 2.263570394993708, 0.0, 55.99019070598236]], 'compliance_tensor': [[4.166456755784806, -1.6392605435213738, -1.2015571815402692, 0.0, 0.7401062021375571, 0.0], [-1.6392605435213736, 7.453025835507034, -2.688506395773255, 0.0, -3.957089464419231, 0.0], [-1.2015571815402688, -2.6885063957732545, 5.071280679964397, 0.0, 2.2145920618776738, 0.0], [0.0, 0.0, 0.0, 15.267739823133379, 0.0, -0.7136234201248008], [0.740106202137557, -3.957089464419231, 2.2145920618776738, 0.0, 16.530558660583804, 0.0], [0.0, 0.0, 0.0, -0.7136234201248008, 0.0, 17.893537969032185]], 'warnings': [], 'nsites': 12}",0,66,182,0.54,0.34,176.88