,mp_id,Formula,Composition,IPF,Density,Elastic_Tensor,E_above_Hull,G_VRH,K_VRH,Elastic_Anisotropy,poisson_ratio,Y_Modulus
154,mp-31624,Sr2TaCrO6,"{'Sr': 2.0, 'Ta': 1.0, 'Cr': 1.0, 'O': 6.0}",0.58996829,6.556700116,"{'G_Reuss': 107.0, 'G_VRH': 107.0, 'G_Voigt': 107.0, 'G_Voigt_Reuss_Hill': 107.0, 'K_Reuss': 187.0, 'K_VRH': 187.0, 'K_Voigt': 187.0, 'K_Voigt_Reuss_Hill': 187.0, 'elastic_anisotropy': 0.02, 'elastic_tensor': [[342.0, 110.0, 110.0, 0.0, 0.0, 0.0], [110.0, 342.0, 110.0, 0.0, 0.0, 0.0], [110.0, 110.0, 342.0, 0.0, 0.0, 0.0], [0.0, 0.0, 0.0, 101.0, 0.0, 0.0], [0.0, 0.0, 0.0, 0.0, 101.0, 0.0], [0.0, 0.0, 0.0, 0.0, 0.0, 101.0]], 'homogeneous_poisson': 0.26, 'poisson_ratio': 0.26, 'universal_anisotropy': 0.02, 'elastic_tensor_original': [[342.4697626487991, 109.53273114583185, 109.53273114583185, 0.0, 0.0, 0.0], [109.53273114583185, 342.4697626487991, 109.53273114583185, 0.0, 0.0, 0.0], [109.53273114583185, 109.53273114583185, 342.4697626487991, 0.0, 0.0, 0.0], [0.0, 0.0, 0.0, 101.24213058069752, 0.0, 0.0], [0.0, 0.0, 0.0, 0.0, 101.24213058069752, 0.0], [0.0, 0.0, 0.0, 0.0, 0.0, 101.24213058069752]], 'compliance_tensor': [[3.455614515992076, -0.8373911669075175, -0.8373911669075175, 1.501645898953846e-16, -6.77735246408142e-16, 5.805957136272112e-17], [-0.8373911669075176, 3.4556145159920755, -0.8373911669075177, -6.777352464081421e-16, 1.5016458989538466e-16, -5.805957136272099e-17], [-0.8373911669075175, -0.8373911669075177, 3.4556145159920755, -6.773968001845926e-16, -6.773968001845928e-16, 5.473767648680391e-32], [1.5016458989538464e-16, -6.777352464081421e-16, -6.773968001845926e-16, 9.877310900751205, 1.1798540475560376e-31, -8.856209614426996e-16], [-6.777352464081421e-16, 1.5016458989538461e-16, -6.773968001845927e-16, 1.180612183461946e-31, 9.877310900751205, -8.856209614426992e-16], [5.805957136272112e-17, -5.8059571362721e-17, 9.123464403989881e-32, -8.856209614426996e-16, -8.856209614426992e-16, 9.877310900751205]], 'warnings': [], 'nsites': 40}",0,107,187,0.02,0.26,269.64
155,mp-557713,Ba2LaTaO6,"{'Ba': 2.0, 'La': 1.0, 'Ta': 1.0, 'O': 6.0}",0.52489922,6.914650475,"{'G_Reuss': 46.0, 'G_VRH': 48.0, 'G_Voigt': 49.0, 'G_Voigt_Reuss_Hill': 48.0, 'K_Reuss': 121.0, 'K_VRH': 121.0, 'K_Voigt': 122.0, 'K_Voigt_Reuss_Hill': 121.0, 'elastic_anisotropy': 0.34, 'elastic_tensor': [[209.0, 65.0, 82.0, 0.0, 5.0, 0.0], [65.0, 189.0, 103.0, 0.0, -8.0, 0.0], [82.0, 103.0, 197.0, 0.0, 3.0, 0.0], [0.0, 0.0, 0.0, 53.0, 0.0, -0.0], [5.0, -8.0, 3.0, 0.0, 46.0, 0.0], [0.0, 0.0, 0.0, -0.0, 0.0, 34.0]], 'homogeneous_poisson': 0.33, 'poisson_ratio': 0.33, 'universal_anisotropy': 0.34, 'elastic_tensor_original': [[188.89965661280456, 100.84973475056468, 64.56506324736951, -7.901700752977495, 0.0, 0.0], [104.63485449516278, 196.95910769963862, 84.87779229112397, 4.601581343976443, 0.0, 0.0], [65.12273116388722, 79.73396018991444, 208.63124730960024, 6.338169568646685, 0.0, 0.0], [-7.156977896954366, 1.888248394233739, 3.7592302459966986, 45.81387370846614, 0.0, 0.0], [-0.0794953936246311, -0.13686771693800875, 0.1636830881035335, 0.17936448685059292, 33.82328707823223, 2.777348286681184], [-0.004447308697448458, 0.1415812284487674, 0.027228992224452714, -0.12044083215811059, -3.143726767523085, 52.57027026605349]], 'compliance_tensor': [[5.878522009008028, -0.9973116308774225, -1.9251531545889786, 0.0, -0.6725911068995966, 0.0], [-0.997311630877422, 7.663073194540131, -3.607820024730372, 0.0, 1.6225287227726704, 0.0], [-1.9251531545889795, -3.6078200247303727, 7.7794338707778765, 0.0, -0.9328824127230042, 0.0], [0.0, 0.0, 0.0, 19.022427120946347, 0.0, 0.09830682546402901], [-0.6725911068995962, 1.6225287227726701, -0.9328824127230043, 0.0, 22.23445884750713, 0.0], [0.0, 0.0, 0.0, 0.09830682546402901, 0.0, 29.56607735853835]], 'warnings': ['Structure contains a rare earth element'], 'nsites': 20}",0.0104175,48,121,0.34,0.33,127.68
156,mp-756088,SrTaNO2,"{'Sr': 1.0, 'Ta': 1.0, 'N': 1.0, 'O': 2.0}",0.443914935,7.794590137,"{'G_Reuss': 81.0, 'G_VRH': 83.0, 'G_Voigt': 85.0, 'G_Voigt_Reuss_Hill': 83.0, 'K_Reuss': 149.0, 'K_VRH': 150.0, 'K_Voigt': 152.0, 'K_Voigt_Reuss_Hill': 150.0, 'elastic_anisotropy': 0.27, 'elastic_tensor': [[210.0, 96.0, 103.0, 0.0, 11.0, 0.0], [96.0, 301.0, 88.0, 0.0, 4.0, 0.0], [103.0, 88.0, 285.0, 0.0, 10.0, 0.0], [0.0, 0.0, 0.0, 64.0, 0.0, 2.0], [11.0, 4.0, 10.0, 0.0, 98.0, 0.0], [0.0, 0.0, 0.0, 2.0, 0.0, 94.0]], 'homogeneous_poisson': 0.27, 'poisson_ratio': 0.27, 'universal_anisotropy': 0.27, 'elastic_tensor_original': [[301.1787624389848, 91.90780088873707, 94.07909028789885, 2.3839417823416196, 0.0, 0.0], [83.81670130986262, 284.8711883701774, 102.19792351052081, 9.483494753230799, 0.0, 0.0], [97.97239678834637, 104.2639512536573, 209.82826055666493, 10.356996276975588, 0.0, 0.0], [5.280334991319078, 11.158898468431847, 10.755875163503777, 98.23389275228153, 0.0, 0.0], [0.0, 0.0, 0.0, 0.0, 93.9665235285227, -0.9017799192499616], [-0.12184195893319115, -0.07651906277608735, 0.05629772654198913, 0.027433392629876017, 4.743216642376789, 64.21245904898815]], 'compliance_tensor': [[6.4, -1.5, -1.8, 0.0, -0.4, 0.0], [-1.5, 4.0, -0.7, 0.0, 0.1, 0.0], [-1.8, -0.7, 4.4, 0.0, -0.2, 0.0], [0.0, 0.0, 0.0, 15.6, 0.0, -0.3], [-0.4, 0.1, -0.2, 0.0, 10.2, 0.0], [0.0, 0.0, 0.0, -0.3, 0.0, 10.6]], 'warnings': [], 'nsites': 20}",0.2698215,83,150,0.27,0.27,210.82