,mp_id,Formula,Composition,IPF,Density,Elastic_Tensor,E_above_Hull,G_VRH,K_VRH,Elastic_Anisotropy,poisson_ratio,Y_Modulus
66,mp-999133,TaPd,"{'Ta': 1.0, 'Pd': 1.0}",0.144686096,14.24104208,"{'G_Reuss': 60.0, 'G_VRH': 71.0, 'G_Voigt': 83.0, 'G_Voigt_Reuss_Hill': 71.0, 'K_Reuss': 204.0, 'K_VRH': 204.0, 'K_Voigt': 204.0, 'K_Voigt_Reuss_Hill': 204.0, 'elastic_anisotropy': 1.97, 'elastic_tensor': [[256.0, 205.0, 162.0, 0.0, 0.0, 0.0], [205.0, 256.0, 162.0, 0.0, 0.0, 0.0], [162.0, 162.0, 269.0, 0.0, 0.0, 0.0], [0.0, 0.0, 0.0, 112.0, 0.0, 0.0], [0.0, 0.0, 0.0, 0.0, 112.0, 0.0], [0.0, 0.0, 0.0, 0.0, 0.0, 108.0]], 'homogeneous_poisson': 0.34, 'poisson_ratio': 0.34, 'universal_anisotropy': 1.97, 'elastic_tensor_original': [[255.89807154074765, 205.29350641162097, 162.13112247187337, 0.0, 0.0, 0.0], [205.29337844537116, 255.8978639462803, 162.13135409692237, 0.0, 0.0, 0.0], [161.02538092388977, 161.02538092388977, 268.7790281589923, 0.0, 0.0, 0.0], [-0.0003159473528368767, -0.0003475674070904324, -0.00034636408429563855, 112.16353317807773, 0.0, 0.0], [-0.00016042635290253754, -0.00013494975752440219, -0.00011127636897712431, 0.0, 112.1635209448234, 0.0], [-7.595634874218102e-05, -7.438964502873294e-05, -0.00010274623597818322, 0.0, 0.0, 107.87075039536386]], 'compliance_tensor': [[11.8, -8.0, -2.3, 0.0, 0.0, 0.0], [-8.0, 11.8, -2.3, -0.0, 0.0, 0.0], [-2.3, -2.3, 6.4, -0.0, 0.0, 0.0], [0.0, -0.0, -0.0, 8.9, 0.0, 0.0], [0.0, 0.0, 0.0, 0.0, 8.9, 0.0], [0.0, 0.0, 0.0, 0.0, 0.0, 9.3]], 'warnings': [], 'nsites': 4}",0,71,204,1.97,0.34,190.28
67,mp-1025441,Ta2AlC,"{'Ta': 2.0, 'Al': 1.0, 'C': 1.0}",0.103557548,11.45046293,"{'G_Reuss': 120.0, 'G_VRH': 122.0, 'G_Voigt': 124.0, 'G_Voigt_Reuss_Hill': 122.0, 'K_Reuss': 194.0, 'K_VRH': 194.0, 'K_Voigt': 194.0, 'K_Voigt_Reuss_Hill': 194.0, 'elastic_anisotropy': 0.15, 'elastic_tensor': [[336.0, 114.0, 129.0, 0.0, 0.0, 0.0], [114.0, 336.0, 129.0, 0.0, 0.0, 0.0], [129.0, 129.0, 327.0, 0.0, 0.0, 0.0], [0.0, 0.0, 0.0, 149.0, 0.0, 0.0], [0.0, 0.0, 0.0, 0.0, 149.0, 0.0], [0.0, 0.0, 0.0, 0.0, 0.0, 111.0]], 'homogeneous_poisson': 0.24, 'poisson_ratio': 0.24, 'universal_anisotropy': 0.15, 'elastic_tensor_original': [[335.87231097534175, 113.9838338964907, 127.60369290203975, 0.0, 0.0, 0.0], [113.45066216575172, 337.27440679178, 128.06102075150793, 0.0, 0.0, 0.0], [129.52400372471854, 129.52407940220658, 326.7952481389172, 0.0, 0.0, 0.0], [0.054546016985926246, 0.2785342147500043, 0.17699112287580798, 148.68649475389986, 0.0, 0.0], [-1.0226610756912742e-05, 2.705996115449913e-05, 2.210332589612077e-05, 0.0, 148.90276128418597, 0.0], [-0.0011197974042634312, -0.0002094868286755224, -0.0016860544238411765, 0.0, 0.0, 110.3598849770272]], 'compliance_tensor': [[3.7, -0.8, -1.1, -0.0, -0.0, -0.0], [-0.8, 3.7, -1.1, -0.0, 0.0, -0.0], [-1.1, -1.1, 3.9, 0.0, -0.0, 0.0], [-0.0, -0.0, 0.0, 6.7, -0.0, -0.0], [-0.0, 0.0, -0.0, -0.0, 6.7, 0.0], [-0.0, -0.0, 0.0, -0.0, 0.0, 9.0]], 'warnings': [], 'nsites': 8}",0,122,194,0.15,0.24,302.56
68,mp-1029616,Ba(TaN2)2,"{'Ba': 1.0, 'Ta': 2.0, 'N': 4.0}",0.187791781,7.639377039,"{'G_Reuss': 25.0, 'G_VRH': 26.0, 'G_Voigt': 26.0, 'G_Voigt_Reuss_Hill': 26.0, 'K_Reuss': 41.0, 'K_VRH': 41.0, 'K_Voigt': 41.0, 'K_Voigt_Reuss_Hill': 41.0, 'elastic_anisotropy': 0.03, 'elastic_tensor': [[72.0, 25.0, 25.0, 0.0, 0.0, 0.0], [25.0, 72.0, 25.0, 0.0, 0.0, 0.0], [25.0, 25.0, 72.0, 0.0, 0.0, 0.0], [0.0, 0.0, 0.0, 27.0, 0.0, 0.0], [0.0, 0.0, 0.0, 0.0, 27.0, 0.0], [0.0, 0.0, 0.0, 0.0, 0.0, 27.0]], 'homogeneous_poisson': 0.24, 'poisson_ratio': 0.24, 'universal_anisotropy': 0.03, 'elastic_tensor_original': [[76.35661054195496, 30.324182682718238, 30.27983385372502, 0.0, 0.0, 0.0], [30.274509285793602, 76.33709012134318, 30.329323475363775, 0.0, 0.0, 0.0], [15.27192394992939, 15.276921847949422, 62.263926056296896, 0.0, 0.0, 0.0], [0.014864920407367373, 0.09542777226546456, -0.12008135489233257, 27.21198543272539, 0.0, 0.0], [-0.359960248018473, 0.0446555778870364, 0.28653676678913065, 0.0, 27.149632892845474, 0.0], [-0.00018968332789781047, -4.878333193415601e-05, 0.0005245833183017637, 0.0, 0.0, 27.22769746977515]], 'compliance_tensor': [[17.1, -4.5, -4.5, 0.0, -0.0, 0.0], [-4.5, 17.1, -4.5, 0.0, 0.0, 0.0], [-4.5, -4.5, 17.1, 0.0, -0.0, 0.0], [0.0, 0.0, 0.0, 36.8, 0.0, 0.0], [-0.0, 0.0, -0.0, 0.0, 36.8, 0.0], [0.0, 0.0, 0.0, 0.0, 0.0, 36.8]], 'warnings': [], 'nsites': 84}",0,26,41,0.03,0.24,64.48
69,mp-10748,TaCu3S4,"{'Ta': 1.0, 'Cu': 3.0, 'S': 4.0}",0.119872034,4.816679667,"{'G_Reuss': 23.0, 'G_VRH': 25.0, 'G_Voigt': 26.0, 'G_Voigt_Reuss_Hill': 25.0, 'K_Reuss': 38.0, 'K_VRH': 38.0, 'K_Voigt': 38.0, 'K_Voigt_Reuss_Hill': 38.0, 'elastic_anisotropy': 0.72, 'elastic_tensor': [[89.0, 12.0, 12.0, 0.0, 0.0, 0.0], [12.0, 89.0, 12.0, 0.0, 0.0, 0.0], [12.0, 12.0, 89.0, 0.0, 0.0, 0.0], [0.0, 0.0, 0.0, 18.0, 0.0, 0.0], [0.0, 0.0, 0.0, 0.0, 18.0, 0.0], [0.0, 0.0, 0.0, 0.0, 0.0, 18.0]], 'homogeneous_poisson': 0.24, 'poisson_ratio': 0.24, 'universal_anisotropy': 0.72, 'elastic_tensor_original': [[89.29089420426781, 12.491535952246902, 12.491535952246902, 0.0, 0.0, 0.0], [12.491136007081192, 89.29073066914327, 12.491136007081192, 0.0, 0.0, 0.0], [12.495233968054613, 12.495233968054613, 89.29512791387153, 0.0, 0.0, 0.0], [0.024177804983736523, 0.021655215507108014, 0.02191973211889446, 18.030882639062472, 0.0, 0.0], [0.005636502163906274, 0.005863105450225282, 0.0027983827527420335, 0.0, 17.98688909818999, 0.0], [-0.03311096646367199, -0.03281070985930075, -0.03308279980284923, 0.0, 0.0, 17.99098782067294]], 'compliance_tensor': [[11.6, -1.4, -1.4, 0.0, 0.0, 0.0], [-1.4, 11.6, -1.4, 0.0, 0.0, -0.0], [-1.4, -1.4, 11.6, 0.0, 0.0, 0.0], [0.0, 0.0, 0.0, 55.5, 0.0, 0.0], [0.0, 0.0, 0.0, 0.0, 55.5, 0.0], [0.0, -0.0, 0.0, 0.0, 0.0, 55.5]], 'warnings': [], 'nsites': 8}",0,25,38,0.72,0.24,62
70,mp-17287,TaTe4Ir,"{'Ta': 1.0, 'Te': 4.0, 'Ir': 1.0}",0.237451042,8.616494558,"{'G_Reuss': 7.0, 'G_VRH': 13.0, 'G_Voigt': 19.0, 'G_Voigt_Reuss_Hill': 13.0, 'K_Reuss': 8.0, 'K_VRH': 18.0, 'K_Voigt': 29.0, 'K_Voigt_Reuss_Hill': 18.0, 'elastic_anisotropy': 11.56, 'elastic_tensor': [[90.0, 6.0, 21.0, 0.0, 0.0, 0.0], [6.0, 8.0, 5.0, 0.0, 0.0, 0.0], [21.0, 5.0, 97.0, 0.0, 0.0, 0.0], [0.0, 0.0, 0.0, 6.0, 0.0, 0.0], [0.0, 0.0, 0.0, 0.0, 32.0, 0.0], [0.0, 0.0, 0.0, 0.0, 0.0, 3.0]], 'homogeneous_poisson': 0.21, 'poisson_ratio': 0.21, 'universal_anisotropy': 11.56, 'elastic_tensor_original': [[96.66640661375851, 20.15043508901375, 5.350471780479026, 0.0, 0.0, 0.0], [20.92646808584005, 90.36302538843191, 5.741716370892048, 0.0, 0.0, 0.0], [5.360606438323779, 7.065074532391, 7.825441941065504, 0.0, 0.0, 0.0], [7.80666156093952e-06, 9.763326948057926e-06, 1.10733260909931e-05, 3.455477753346852, 0.0, 0.0], [-0.02952301240122265, -0.10789181696543758, -0.03535176030674632, 0.0, 6.019769904100729, 0.0], [-0.010370584193938027, -0.005733168326210918, -0.017245879484216593, 0.0, 0.0, 31.77424931433402]], 'compliance_tensor': [[12.1, -8.5, -2.1, 0.0, 0.0, 0.0], [-8.5, 138.8, -5.9, 0.0, 0.0, 0.0], [-2.1, -5.9, 11.1, 0.0, 0.0, 0.0], [0.0, 0.0, 0.0, 166.1, 0.0, 0.0], [0.0, 0.0, 0.0, 0.0, 31.5, 0.0], [0.0, 0.0, 0.0, 0.0, 0.0, 289.4]], 'warnings': [], 'nsites': 24}",0,13,18,11.56,0.21,31.46
71,mp-17518,Sr2TaN3,"{'Sr': 2.0, 'Ta': 1.0, 'N': 3.0}",0.226424089,6.056681056,"{'G_Reuss': 36.0, 'G_VRH': 38.0, 'G_Voigt': 39.0, 'G_Voigt_Reuss_Hill': 38.0, 'K_Reuss': 67.0, 'K_VRH': 68.0, 'K_Voigt': 69.0, 'K_Voigt_Reuss_Hill': 68.0, 'elastic_anisotropy': 0.41, 'elastic_tensor': [[127.0, 44.0, 36.0, 0.0, -0.0, 0.0], [44.0, 144.0, 36.0, 0.0, 14.0, 0.0], [36.0, 36.0, 120.0, 0.0, 12.0, 0.0], [0.0, 0.0, 0.0, 28.0, 0.0, 6.0], [-0.0, 14.0, 12.0, 0.0, 38.0, 0.0], [0.0, 0.0, 0.0, 6.0, 0.0, 37.0]], 'homogeneous_poisson': 0.27, 'poisson_ratio': 0.27, 'universal_anisotropy': 0.41, 'elastic_tensor_original': [[143.87332456064368, 35.91268545358526, 44.108685741814256, 13.623823561971614, 0.0, 0.0], [36.11393055618399, 119.82178944819186, 36.1425620597414, 12.614714675957039, 0.0, 0.0], [43.38641663246119, 34.86497673391706, 127.48461129928987, -0.4935476415151028, 0.0, 0.0], [13.469192085808542, 12.31152711041079, -0.21403704028316076, 38.43157990003378, 0.0, 0.0], [0.0430593515438463, 0.0333281596883125, 0.030263819104007217, -0.04209815469389948, 36.86448447928188, 5.864483641567026], [0.0026918669854374927, 0.0037912671156282744, -0.007245234191313692, -0.004653950551120655, 6.228871404289369, 27.945142375929308]], 'compliance_tensor': [[9.3, -2.4, -2.2, 0.0, 1.7, 0.0], [-2.4, 8.3, -1.5, 0.0, -2.5, 0.0], [-2.2, -1.5, 9.7, 0.0, -2.6, 0.0], [0.0, 0.0, 0.0, 37.1, 0.0, -6.1], [1.7, -2.5, -2.6, 0.0, 27.8, 0.0], [0.0, 0.0, 0.0, -6.1, 0.0, 28.1]], 'warnings': [], 'nsites': 24}",0,38,68,0.41,0.27,96.52
72,mp-20436,TaSiRh,"{'Ta': 1.0, 'Si': 1.0, 'Rh': 1.0}",0.105775067,11.65452074,"{'G_Reuss': 115.0, 'G_VRH': 118.0, 'G_Voigt': 121.0, 'G_Voigt_Reuss_Hill': 118.0, 'K_Reuss': 235.0, 'K_VRH': 235.0, 'K_Voigt': 236.0, 'K_Voigt_Reuss_Hill': 235.0, 'elastic_anisotropy': 0.25, 'elastic_tensor': [[362.0, 143.0, 188.0, 0.0, 0.0, 0.0], [143.0, 411.0, 173.0, 0.0, 0.0, 0.0], [188.0, 173.0, 338.0, 0.0, 0.0, 0.0], [0.0, 0.0, 0.0, 129.0, 0.0, 0.0], [0.0, 0.0, 0.0, 0.0, 149.0, 0.0], [0.0, 0.0, 0.0, 0.0, 0.0, 124.0]], 'homogeneous_poisson': 0.29, 'poisson_ratio': 0.29, 'universal_anisotropy': 0.25, 'elastic_tensor_original': [[337.5106670118721, 188.9066459761157, 173.5477240673978, 0.0, 0.0, 0.0], [187.49744326566298, 362.37037512763965, 144.34209237047043, 0.0, 0.0, 0.0], [172.22220407834277, 142.58516455983982, 411.1565759499001, 0.0, 0.0, 0.0], [-0.0003977632139558963, -0.00035714322614607233, -0.0002603232552040302, 124.12935273310265, 0.0, 0.0], [-0.0007361068972859146, -0.0004060301272082818, -0.0004969934890403439, 0.0, 128.68976221496953, 0.0], [7.63966895673799e-05, -0.0003989401195909817, -0.00032552009758192533, 0.0, 0.0, 149.3045305972569]], 'compliance_tensor': [[4.0, -0.6, -1.9, 0.0, -0.0, 0.0], [-0.6, 3.2, -1.3, 0.0, 0.0, 0.0], [-1.9, -1.3, 4.7, 0.0, 0.0, 0.0], [0.0, 0.0, 0.0, 7.8, 0.0, 0.0], [-0.0, 0.0, 0.0, 0.0, 6.7, 0.0], [0.0, 0.0, 0.0, 0.0, 0.0, 8.1]], 'warnings': [], 'nsites': 12}",0,118,235,0.25,0.29,304.44
73,mp-21316,TaSiIr,"{'Ta': 1.0, 'Si': 1.0, 'Ir': 1.0}",0.107804815,14.82714465,"{'G_Reuss': 123.0, 'G_VRH': 125.0, 'G_Voigt': 127.0, 'G_Voigt_Reuss_Hill': 125.0, 'K_Reuss': 258.0, 'K_VRH': 259.0, 'K_Voigt': 259.0, 'K_Voigt_Reuss_Hill': 259.0, 'elastic_anisotropy': 0.17, 'elastic_tensor': [[394.0, 164.0, 201.0, 0.0, 0.0, 0.0], [164.0, 460.0, 189.0, 0.0, 0.0, 0.0], [201.0, 189.0, 370.0, 0.0, 0.0, 0.0], [0.0, 0.0, 0.0, 133.0, 0.0, 0.0], [0.0, 0.0, 0.0, 0.0, 143.0, 0.0], [0.0, 0.0, 0.0, 0.0, 0.0, 135.0]], 'homogeneous_poisson': 0.29, 'poisson_ratio': 0.29, 'universal_anisotropy': 0.17, 'elastic_tensor_original': [[370.3022911390683, 201.48940339124155, 189.67000677513633, 0.0, 0.0, 0.0], [200.31386923587772, 393.5267740887075, 163.25410316764578, 0.0, 0.0, 0.0], [187.90007369940005, 164.31714787999204, 460.17151810386537, 0.0, 0.0, 0.0], [-7.023994826491616e-05, 9.20007456326666e-06, -0.00015482994601288385, 135.2698153173383, 0.0, 0.0], [-0.00039233933895066486, -7.031988151720334e-05, -9.859650054104782e-05, 0.0, 132.57650435060975, 0.0], [-3.983993011213003e-05, -0.00017548969217554374, 1.9769965322016996e-05, 0.0, 0.0, 142.92215178381412]], 'compliance_tensor': [[3.6, -0.6, -1.7, 0.0, -0.0, 0.0], [-0.6, 2.9, -1.1, 0.0, 0.0, 0.0], [-1.7, -1.1, 4.2, 0.0, 0.0, 0.0], [0.0, 0.0, 0.0, 7.5, 0.0, 0.0], [-0.0, 0.0, 0.0, 0.0, 7.0, 0.0], [0.0, 0.0, 0.0, 0.0, 0.0, 7.4]], 'warnings': [], 'nsites': 12}",0,125,259,0.17,0.29,322.5
74,mp-30555,TaGaCo2,"{'Ta': 1.0, 'Ga': 1.0, 'Co': 2.0}",0.150167889,11.56215004,"{'G_Reuss': 79.0, 'G_VRH': 86.0, 'G_Voigt': 92.0, 'G_Voigt_Reuss_Hill': 86.0, 'K_Reuss': 202.0, 'K_VRH': 202.0, 'K_Voigt': 202.0, 'K_Voigt_Reuss_Hill': 202.0, 'elastic_anisotropy': 0.86, 'elastic_tensor': [[272.0, 167.0, 167.0, 0.0, 0.0, 0.0], [167.0, 272.0, 167.0, 0.0, 0.0, 0.0], [167.0, 167.0, 272.0, 0.0, 0.0, 0.0], [0.0, 0.0, 0.0, 119.0, 0.0, 0.0], [0.0, 0.0, 0.0, 0.0, 119.0, 0.0], [0.0, 0.0, 0.0, 0.0, 0.0, 119.0]], 'homogeneous_poisson': 0.31, 'poisson_ratio': 0.31, 'universal_anisotropy': 0.86, 'elastic_tensor_original': [[272.87413516469445, 166.99503842776247, 166.99503842776247, 0.0, 0.0, 0.0], [167.35115824093464, 271.56617035188714, 167.35115824093464, 0.0, 0.0, 0.0], [167.3693818076003, 167.3693818076003, 271.58453522715524, 0.0, 0.0, 0.0], [1.9156615169717942e-05, 1.9753285317934466e-05, 2.058994978747374e-05, 119.0524581805456, 0.0, 0.0], [-6.719675579562771e-05, -7.761342413282523e-05, -6.797342165269024e-05, 0.0, 119.05245292053569, 0.0], [4.3160083389874345e-05, 3.9830083407272506e-05, 5.771341470106707e-05, 0.0, 0.0, 119.05247894386359]], 'compliance_tensor': [[6.9, -2.6, -2.6, 0.0, -0.0, -0.0], [-2.6, 6.9, -2.6, -0.0, 0.0, -0.0], [-2.6, -2.6, 6.9, -0.0, -0.0, 0.0], [0.0, -0.0, -0.0, 8.4, -0.0, -0.0], [-0.0, 0.0, -0.0, -0.0, 8.4, -0.0], [-0.0, -0.0, 0.0, -0.0, -0.0, 8.4]], 'warnings': [], 'nsites': 4}",0,86,202,0.86,0.31,225.32
75,mp-3102,TaCuS3,"{'Ta': 1.0, 'Cu': 1.0, 'S': 3.0}",0.130750151,5.611034233,"{'G_Reuss': 23.0, 'G_VRH': 25.0, 'G_Voigt': 27.0, 'G_Voigt_Reuss_Hill': 25.0, 'K_Reuss': 41.0, 'K_VRH': 43.0, 'K_Voigt': 46.0, 'K_Voigt_Reuss_Hill': 43.0, 'elastic_anisotropy': 0.83, 'elastic_tensor': [[58.0, 27.0, 28.0, 0.0, 0.0, 0.0], [27.0, 63.0, 22.0, 0.0, 0.0, 0.0], [28.0, 22.0, 137.0, 0.0, 0.0, 0.0], [0.0, 0.0, 0.0, 20.0, 0.0, 0.0], [0.0, 0.0, 0.0, 0.0, 21.0, 0.0], [0.0, 0.0, 0.0, 0.0, 0.0, 32.0]], 'homogeneous_poisson': 0.26, 'poisson_ratio': 0.26, 'universal_anisotropy': 0.83, 'elastic_tensor_original': [[137.38258563265657, 28.210741896088283, 21.487447149542366, 0.04525126132154947, 0.239555831786919, 0.24831519552386616], [27.476772864487394, 58.44685416642615, 26.326116799733583, 0.0, 0.0, 0.0], [22.043929064168132, 26.999366783753988, 62.69995163283688, 0.0, 0.0, 0.0], [0.031585680411480466, 0.024073766025218817, 0.026170728721973423, 31.718050794629676, 0.0, 0.0], [0.17676845233141375, 0.18344583244831686, 0.1622972331900496, 0.0, 20.43470264175111, 0.0], [-0.004998384435543214, -0.030719801435729704, 0.02512647996713856, 0.0, 0.0, 20.906201222074046]], 'compliance_tensor': [[22.5, -8.4, -3.2, 0.0, -0.0, 0.0], [-8.4, 20.1, -1.5, 0.0, -0.0, 0.0], [-3.2, -1.5, 8.2, 0.0, 0.0, 0.0], [0.0, 0.0, 0.0, 48.9, 0.0, 0.0], [-0.0, -0.0, 0.0, 0.0, 47.8, 0.0], [0.0, 0.0, 0.0, 0.0, 0.0, 31.5]], 'warnings': [], 'nsites': 20}",0,25,43,0.83,0.26,63
76,mp-34293,CsTaN2,"{'Cs': 1.0, 'Ta': 1.0, 'N': 2.0}",0.332227815,6.449455409,"{'G_Reuss': 31.0, 'G_VRH': 32.0, 'G_Voigt': 33.0, 'G_Voigt_Reuss_Hill': 32.0, 'K_Reuss': 46.0, 'K_VRH': 46.0, 'K_Voigt': 46.0, 'K_Voigt_Reuss_Hill': 46.0, 'elastic_anisotropy': 0.39, 'elastic_tensor': [[97.0, 5.0, 33.0, 0.0, 0.0, 0.0], [5.0, 97.0, 33.0, 0.0, 0.0, 0.0], [33.0, 33.0, 82.0, 0.0, 0.0, 0.0], [0.0, 0.0, 0.0, 36.0, 0.0, 0.0], [0.0, 0.0, 0.0, 0.0, 36.0, 0.0], [0.0, 0.0, 0.0, 0.0, 0.0, 24.0]], 'homogeneous_poisson': 0.22, 'poisson_ratio': 0.22, 'universal_anisotropy': 0.39, 'elastic_tensor_original': [[97.02877607811338, 4.785321870881844, 32.08399790118954, 0.0, 0.0, 0.0], [4.908400824341512, 96.90679166839526, 32.086673375805454, 0.0, 0.0, 0.0], [33.101053716756184, 33.101053716756184, 82.34076868054268, 0.0, 0.0, 0.0], [0.07099777260800828, 0.13764803541954937, 0.07027734523220122, 36.04497252930769, -0.0003560853568726827, -0.0009159906000211704], [0.08867977385319616, -0.022494484115552424, -0.07877622937902096, 0.0008113562139589646, 36.03308435816309, 4.3409975778788605e-05], [-0.2053902846750632, -0.08633456799855076, -0.14787243710321635, 0.0, 0.0, 24.044923930595235]], 'compliance_tensor': [[12.0, 1.2, -5.2, 0.0, 0.0, 0.0], [1.2, 12.0, -5.2, 0.0, 0.0, 0.0], [-5.2, -5.2, 16.3, 0.0, -0.0, -0.0], [0.0, 0.0, 0.0, 27.7, 0.0, 0.0], [0.0, 0.0, -0.0, 0.0, 27.7, 0.0], [0.0, 0.0, -0.0, 0.0, 0.0, 41.6]], 'warnings': [], 'nsites': 8}",0,32,46,0.39,0.22,78.08
77,mp-3614,KTaO3,"{'K': 1.0, 'Ta': 1.0, 'O': 3.0}",0.643703692,6.796251483,"{'G_Reuss': 118.0, 'G_VRH': 122.0, 'G_Voigt': 127.0, 'G_Voigt_Reuss_Hill': 122.0, 'K_Reuss': 188.0, 'K_VRH': 188.0, 'K_Voigt': 188.0, 'K_Voigt_Reuss_Hill': 188.0, 'elastic_anisotropy': 0.38, 'elastic_tensor': [[415.0, 75.0, 75.0, 0.0, 0.0, 0.0], [75.0, 415.0, 75.0, 0.0, 0.0, 0.0], [75.0, 75.0, 415.0, 0.0, 0.0, 0.0], [0.0, 0.0, 0.0, 98.0, 0.0, 0.0], [0.0, 0.0, 0.0, 0.0, 98.0, 0.0], [0.0, 0.0, 0.0, 0.0, 0.0, 98.0]], 'homogeneous_poisson': 0.23, 'poisson_ratio': 0.23, 'universal_anisotropy': 0.38, 'elastic_tensor_original': [[415.2518349032217, 74.5882483848558, 74.5882483848558, 0.0, 0.0, 0.0], [74.5981054736801, 415.24910311330945, 74.5981054736801, 0.0, 0.0, 0.0], [74.58863416230805, 74.58863416230805, 415.24694200993923, 0.0, 0.0, 0.0], [0.00503534035917921, 0.0034531767217731257, 0.00536340639772, 97.99469880960076, 0.0, 0.0], [0.0014244806059780127, 3.13166067067732e-05, 0.0022884956183742726, 0.0, 97.99463664305308, 0.0], [0.004584724555275288, 0.003473793348966119, 0.005128023515058024, 0.0, 0.0, 97.9945455098943]], 'compliance_tensor': [[2.5, -0.4, -0.4, 0.0, -0.0, 0.0], [-0.4, 2.5, -0.4, 0.0, 0.0, -0.0], [-0.4, -0.4, 2.5, -0.0, 0.0, -0.0], [0.0, 0.0, -0.0, 10.2, -0.0, 0.0], [-0.0, 0.0, 0.0, -0.0, 10.2, -0.0], [0.0, -0.0, -0.0, 0.0, -0.0, 10.2]], 'warnings': [], 'nsites': 5}",0,122,188,0.38,0.23,300.12
78,mp-39105,MgTa2N3,"{'Mg': 1.0, 'Ta': 2.0, 'N': 3.0}",0.166739347,11.3724279,"{'G_Reuss': 201.0, 'G_VRH': 201.0, 'G_Voigt': 202.0, 'G_Voigt_Reuss_Hill': 201.0, 'K_Reuss': 276.0, 'K_VRH': 276.0, 'K_Voigt': 276.0, 'K_Voigt_Reuss_Hill': 276.0, 'elastic_anisotropy': 0.01, 'elastic_tensor': [[555.0, 150.0, 131.0, 0.0, 0.0, 0.0], [150.0, 555.0, 131.0, 0.0, 0.0, 0.0], [131.0, 131.0, 555.0, 0.0, 0.0, 0.0], [0.0, 0.0, 0.0, 194.0, 0.0, 0.0], [0.0, 0.0, 0.0, 0.0, 194.0, 0.0], [0.0, 0.0, 0.0, 0.0, 0.0, 203.0]], 'homogeneous_poisson': 0.21, 'poisson_ratio': 0.21, 'universal_anisotropy': 0.01, 'elastic_tensor_original': [[555.7002024896615, 149.22275365912003, 130.67599094759993, 0.0, 0.0, 0.0], [148.42316720253243, 555.3371743833624, 130.31251187122373, 0.0, 0.0, 0.0], [130.94004046266423, 130.93998534815634, 555.3475968583135, 0.0, 0.0, 0.0], [-1.6833323075458727e-06, -3.6933310795245303e-06, -1.5666657077557541e-06, 193.80108314125843, 0.0, 0.0], [-0.012432971174404468, 0.0017919891116648322, 0.0003847750320997446, 0.0, 193.80456577064692, 0.0], [4.236664579100654e-06, -2.2169992008703044e-05, -2.4966658790775075e-06, 0.0, 0.0, 201.90514163491252]], 'compliance_tensor': [[2.0, -0.5, -0.4, -0.0, -0.0, 0.0], [-0.5, 2.0, -0.4, 0.0, 0.0, 0.0], [-0.4, -0.4, 2.0, -0.0, 0.0, -0.0], [-0.0, 0.0, -0.0, 5.2, 0.0, -0.0], [-0.0, 0.0, 0.0, 0.0, 5.2, 0.0], [0.0, 0.0, -0.0, -0.0, 0.0, 4.9]], 'warnings': [], 'nsites': 24}",0,201,276,0.01,0.21,486.42