,mp_id,Formula,Composition,IPF,Density,Elastic_Tensor,E_above_Hull,G_VRH,K_VRH,Elastic_Anisotropy,poisson_ratio,Y_Modulus
142,mp-972323,TaNbTc2,"{'Ta': 1.0, 'Nb': 1.0, 'Tc': 2.0}",0.123370157,11.97658369,"{'G_Reuss': 104.0, 'G_VRH': 108.0, 'G_Voigt': 113.0, 'G_Voigt_Reuss_Hill': 108.0, 'K_Reuss': 195.0, 'K_VRH': 195.0, 'K_Voigt': 195.0, 'K_Voigt_Reuss_Hill': 195.0, 'elastic_anisotropy': 0.44, 'elastic_tensor': [[401.0, 92.0, 92.0, 0.0, 0.0, 0.0], [92.0, 401.0, 92.0, 0.0, 0.0, 0.0], [92.0, 92.0, 401.0, 0.0, 0.0, 0.0], [0.0, 0.0, 0.0, 85.0, 0.0, 0.0], [0.0, 0.0, 0.0, 0.0, 85.0, 0.0], [0.0, 0.0, 0.0, 0.0, 0.0, 85.0]], 'homogeneous_poisson': 0.27, 'poisson_ratio': 0.27, 'universal_anisotropy': 0.44, 'elastic_tensor_original': [[400.87068440533454, 92.25530739467456, 92.25530739467456, 0.0, 0.0, 0.0], [92.25530739467456, 400.87068440533454, 92.25530739467456, 0.0, 0.0, 0.0], [92.25530739467456, 92.25530739467456, 400.87068440533454, 0.0, 0.0, 0.0], [0.0, 0.0, 0.0, 84.8745628515761, 0.009121194978268661, 0.0], [0.0, 0.0, 0.0, -0.00912119497826813, 84.8745628515761, 0.0], [0.0, 0.0, 0.0, 0.0, -0.0091267949137942, 84.87456665153235]], 'compliance_tensor': [[2.7, -0.5, -0.5, -0.0, 0.0, -0.0], [-0.5, 2.7, -0.5, 0.0, -0.0, 0.0], [-0.5, -0.5, 2.7, 0.0, 0.0, -0.0], [-0.0, 0.0, 0.0, 11.8, 0.0, 0.0], [0.0, -0.0, 0.0, 0.0, 11.8, 0.0], [-0.0, 0.0, 0.0, 0.0, 0.0, 11.8]], 'warnings': [], 'nsites': 4}",0,108,195,0.44,0.27,274.32
143,mp-977353,Ta2ReMo,"{'Ta': 2.0, 'Re': 1.0, 'Mo': 1.0}",0.121210161,16.03517401,"{'G_Reuss': 128.0, 'G_VRH': 129.0, 'G_Voigt': 130.0, 'G_Voigt_Reuss_Hill': 129.0, 'K_Reuss': 290.0, 'K_VRH': 290.0, 'K_Voigt': 290.0, 'K_Voigt_Reuss_Hill': 290.0, 'elastic_anisotropy': 0.09, 'elastic_tensor': [[493.0, 189.0, 189.0, 0.0, 0.0, 0.0], [189.0, 493.0, 189.0, 0.0, 0.0, 0.0], [189.0, 189.0, 493.0, 0.0, 0.0, 0.0], [0.0, 0.0, 0.0, 116.0, 0.0, 0.0], [0.0, 0.0, 0.0, 0.0, 116.0, 0.0], [0.0, 0.0, 0.0, 0.0, 0.0, 116.0]], 'homogeneous_poisson': 0.31, 'poisson_ratio': 0.31, 'universal_anisotropy': 0.09, 'elastic_tensor_original': [[493.26912665209335, 189.03082619575724, 189.03082619575724, -0.004417478667577951, -0.005617845697766417, 0.005617845697766417], [189.03082619575724, 493.26912665209335, 189.03082619575724, -0.005617845697773762, 0.0044174786675738814, -0.005622245576920667], [189.03082619575724, 189.03082619575724, 493.26912665209335, -0.005622245576924737, -0.005622245576924737, 0.004417478667577951], [0.0, 0.0, 0.0, 115.68997953314023, 0.0, 0.0], [0.0, 0.0, 0.0, 0.0, 115.68997953314023, 0.0], [0.0, 0.0, 0.0, 0.0, 0.0, 115.68997953314023]], 'compliance_tensor': [[2.6, -0.7, -0.7, -0.0, 0.0, -0.0], [-0.7, 2.6, -0.7, 0.0, -0.0, 0.0], [-0.7, -0.7, 2.6, 0.0, 0.0, -0.0], [-0.0, 0.0, 0.0, 8.6, 0.0, 0.0], [0.0, -0.0, 0.0, 0.0, 8.6, 0.0], [-0.0, 0.0, -0.0, 0.0, 0.0, 8.6]], 'warnings': [], 'nsites': 4}",0,129,290,0.09,0.31,337.98
144,mp-977363,Ta2TcMo,"{'Ta': 2.0, 'Tc': 1.0, 'Mo': 1.0}",0.124913758,13.92800334,"{'G_Reuss': 110.0, 'G_VRH': 113.0, 'G_Voigt': 116.0, 'G_Voigt_Reuss_Hill': 113.0, 'K_Reuss': 195.0, 'K_VRH': 195.0, 'K_Voigt': 195.0, 'K_Voigt_Reuss_Hill': 195.0, 'elastic_anisotropy': 0.27, 'elastic_tensor': [[395.0, 95.0, 95.0, 0.0, 0.0, 0.0], [95.0, 395.0, 95.0, 0.0, 0.0, 0.0], [95.0, 95.0, 395.0, 0.0, 0.0, 0.0], [0.0, 0.0, 0.0, 93.0, 0.0, 0.0], [0.0, 0.0, 0.0, 0.0, 93.0, 0.0], [0.0, 0.0, 0.0, 0.0, 0.0, 93.0]], 'homogeneous_poisson': 0.26, 'poisson_ratio': 0.26, 'universal_anisotropy': 0.27, 'elastic_tensor_original': [[394.92338576033035, 95.27599643301367, 95.27599643301367, -0.3149265097209557, 0.0009629948313973802, -0.0009629948313973802], [95.27599643301367, 394.92338576033035, 95.27599643301367, 0.0009629948314077754, 0.3149265097209598, 0.0009689947992006135], [95.27599643301367, 95.27599643301367, 394.92338576033035, 0.000968994799204657, 0.000968994799204657, 0.3149265097209557], [0.0, 0.0, 0.0, 93.34561951488148, 0.0, 0.0], [0.0, 0.0, 0.0, 0.0, 93.34561951488148, 0.0], [0.0, 0.0, 0.0, 0.0, 0.0, 93.34561951488148]], 'compliance_tensor': [[2.8, -0.5, -0.5, 0.0, -0.0, 0.0], [-0.5, 2.8, -0.5, -0.0, 0.0, -0.0], [-0.5, -0.5, 2.8, -0.0, -0.0, 0.0], [0.0, -0.0, -0.0, 10.7, 0.0, -0.0], [-0.0, 0.0, -0.0, 0.0, 10.7, -0.0], [0.0, -0.0, 0.0, -0.0, -0.0, 10.7]], 'warnings': [], 'nsites': 4}",0,113,195,0.27,0.26,284.76
145,mp-977382,Ta2VRu,"{'Ta': 2.0, 'V': 1.0, 'Ru': 1.0}",0.123114109,13.47347638,"{'G_Reuss': 83.0, 'G_VRH': 84.0, 'G_Voigt': 86.0, 'G_Voigt_Reuss_Hill': 84.0, 'K_Reuss': 232.0, 'K_VRH': 232.0, 'K_Voigt': 232.0, 'K_Voigt_Reuss_Hill': 232.0, 'elastic_anisotropy': 0.23, 'elastic_tensor': [[378.0, 159.0, 159.0, 0.0, 0.0, 0.0], [159.0, 378.0, 159.0, 0.0, 0.0, 0.0], [159.0, 159.0, 378.0, 0.0, 0.0, 0.0], [0.0, 0.0, 0.0, 71.0, 0.0, 0.0], [0.0, 0.0, 0.0, 0.0, 71.0, 0.0], [0.0, 0.0, 0.0, 0.0, 0.0, 71.0]], 'homogeneous_poisson': 0.34, 'poisson_ratio': 0.34, 'universal_anisotropy': 0.23, 'elastic_tensor_original': [[377.7002138028832, 159.44396945495666, 159.44396945495666, 0.0, 0.0, 0.0], [159.75171019837262, 376.300264351647, 159.75171019837262, 0.0, 0.0, 0.0], [158.8379055219504, 158.8379055219504, 379.3379236785402, 0.0, 0.0, 0.0], [0.002050137523180853, 0.0020507815293086865, 0.002056789951346476, 71.05298399127933, 0.0, 0.0], [-0.001199459364152657, -0.001175529376838161, -0.001209509358824279, 0.0, 71.05292147746223, 0.0], [-0.0007049055279300056, -0.0007103372836069775, -0.0006965915256876002, 0.0, 0.0, 71.05293516473279]], 'compliance_tensor': [[3.5, -1.0, -1.0, -0.0, -0.0, 0.0], [-1.0, 3.5, -1.0, 0.0, 0.0, 0.0], [-1.0, -1.0, 3.5, 0.0, -0.0, -0.0], [-0.0, 0.0, 0.0, 14.1, -0.0, -0.0], [-0.0, 0.0, -0.0, -0.0, 14.1, 0.0], [0.0, 0.0, -0.0, -0.0, 0.0, 14.1]], 'warnings': [], 'nsites': 4}",0,84,232,0.23,0.34,225.12
146,mp-979267,Ta2FeMo,"{'Ta': 2.0, 'Fe': 1.0, 'Mo': 1.0}",0.146328342,13.62004584,"{'G_Reuss': 93.0, 'G_VRH': 98.0, 'G_Voigt': 104.0, 'G_Voigt_Reuss_Hill': 98.0, 'K_Reuss': 218.0, 'K_VRH': 218.0, 'K_Voigt': 218.0, 'K_Voigt_Reuss_Hill': 218.0, 'elastic_anisotropy': 0.6, 'elastic_tensor': [[416.0, 120.0, 120.0, 0.0, 0.0, 0.0], [120.0, 416.0, 120.0, 0.0, 0.0, 0.0], [120.0, 120.0, 416.0, 0.0, 0.0, 0.0], [0.0, 0.0, 0.0, 74.0, 0.0, 0.0], [0.0, 0.0, 0.0, 0.0, 74.0, 0.0], [0.0, 0.0, 0.0, 0.0, 0.0, 74.0]], 'homogeneous_poisson': 0.3, 'poisson_ratio': 0.3, 'universal_anisotropy': 0.6, 'elastic_tensor_original': [[415.59663890477776, 119.67271090047494, 119.7893351642475, -0.00013319893071571195, -0.001185390484012049, 0.06698726224472949], [119.67106107725786, 415.5966390559542, 119.78850937653189, -0.00027039636130896534, -0.0005023948131611966, -0.06695014955453754], [119.78713814479575, 119.67161358865857, 415.5966390430183, -0.06692565819620379, -0.0011853165386248653, -0.00010403653379386803], [1.4187842167792137e-10, -6.990276760850464e-05, -7.013821845795596e-05, 74.12170725403854, -3.491416556052246e-05, -0.00016169444693868884], [-0.00032338844270876795, 0.0, -0.00032338995471220284, -4.193178270699837e-05, 74.12170725219246, -3.495124016783174e-05], [-7.672833157200096e-05, -7.696395470034619e-05, 1.9902613064781442e-10, -0.00016169476071949593, -3.851906708140115e-05, 74.121901655975]], 'compliance_tensor': [[2.8, -0.6, -0.6, -0.0, 0.0, 0.0], [-0.6, 2.8, -0.6, 0.0, -0.0, 0.0], [-0.6, -0.6, 2.8, 0.0, 0.0, -0.0], [-0.0, 0.0, 0.0, 13.5, 0.0, 0.0], [0.0, -0.0, 0.0, 0.0, 13.5, 0.0], [0.0, 0.0, -0.0, 0.0, 0.0, 13.5]], 'warnings': [], 'nsites': 4}",0,98,218,0.6,0.3,254.8
147,mp-4574,YbTaO4,"{'Yb': 1.0, 'Ta': 1.0, 'O': 4.0}",0.52979939,8.933639168,"{'G_Reuss': 33.0, 'G_VRH': 37.0, 'G_Voigt': 40.0, 'G_Voigt_Reuss_Hill': 37.0, 'K_Reuss': 46.0, 'K_VRH': 59.0, 'K_Voigt': 73.0, 'K_Voigt_Reuss_Hill': 59.0, 'elastic_anisotropy': 1.63, 'elastic_tensor': [[140.0, 4.0, 66.0, 0.0, -29.0, 0.0], [4.0, 94.0, 59.0, 0.0, -16.0, 0.0], [66.0, 59.0, 168.0, 0.0, -17.0, 0.0], [0.0, 0.0, 0.0, 42.0, 0.0, 3.0], [-29.0, -16.0, -17.0, 0.0, 38.0, 0.0], [0.0, 0.0, 0.0, 3.0, 0.0, 32.0]], 'homogeneous_poisson': 0.24, 'poisson_ratio': 0.24, 'universal_anisotropy': 1.63, 'elastic_tensor_original': [[93.52522887770789, 54.068075184692724, 2.225812412060481, -16.1797390655304, 0.0, 0.0], [64.20639422134192, 167.28072268066745, 65.90913018428037, -15.322552774400108, 0.0, 0.0], [6.79463648801484, 65.75347758666035, 139.94476352129027, -30.07265680323062, 0.0, 0.0], [-16.536664416763028, -18.919959379291605, -27.662792012706284, 37.585389393369056, 0.0, 0.0], [-0.0010876264496155789, -0.002252336217181197, -0.0016558663362152902, -0.0010430697918418631, 31.64802695419272, 3.451670221170837], [7.60733153527127e-05, 0.00010761997456295588, 6.648665095160595e-05, 3.596332483192588e-05, 1.4904991443593372, 41.54011107788506]], 'compliance_tensor': [[11.003838841945566, 3.9735235247465712, -4.93066601307659, 0.0, 7.909716792590532, 0.0], [3.9735235247465694, 15.781632564208444, -6.442371036567011, 0.0, 6.910719798324308, 0.0], [-4.9306660130765865, -6.44237103656701, 9.982081120783425, 0.0, -2.0311856190914055, 0.0], [0.0, 0.0, 0.0, 24.197886874499737, 0.0, -1.9130900358643446], [7.909716792590534, 6.91071979832431, -2.0311856190914086, 0.0, 34.6633476114886, 0.0], [0.0, 0.0, 0.0, -1.9130900358643446, 0.0, 31.732559740753807]], 'warnings': ['Structure contains a rare earth element'], 'nsites': 12}",0,37,59,1.63,0.24,91.76
148,mp-505206,Ta3SiTe6,"{'Ta': 3.0, 'Si': 1.0, 'Te': 6.0}",0.222359023,7.964755741,"{'G_Reuss': 6.0, 'G_VRH': 15.0, 'G_Voigt': 23.0, 'G_Voigt_Reuss_Hill': 15.0, 'K_Reuss': 10.0, 'K_VRH': 21.0, 'K_Voigt': 33.0, 'K_Voigt_Reuss_Hill': 21.0, 'elastic_anisotropy': 15.92, 'elastic_tensor': [[108.0, 3.0, 24.0, 0.0, 0.0, 0.0], [3.0, 11.0, 3.0, 0.0, 0.0, 0.0], [24.0, 3.0, 120.0, 0.0, 0.0, 0.0], [0.0, 0.0, 0.0, 3.0, 0.0, 0.0], [0.0, 0.0, 0.0, 0.0, 40.0, 0.0], [0.0, 0.0, 0.0, 0.0, 0.0, 3.0]], 'homogeneous_poisson': 0.22, 'poisson_ratio': 0.22, 'universal_anisotropy': 15.92, 'elastic_tensor_original': [[119.8338997955952, 24.496383284051397, 2.9193908995480458, 0.0, 0.0, 0.0], [23.9762840574656, 107.5464338700817, 3.027316715318162, 0.0, 0.0, 0.0], [2.633353131562995, 2.5926594521405435, 10.667114347385477, 0.0, 0.0, 0.0], [-0.026787412207231718, -0.06488818421357952, -0.07032052610168701, 3.4676535676608786, 0.0, 0.0], [-1.3666666472571357e-07, -3.0666666346892437e-07, -5.73333327938097e-07, 0.0, 3.061564314569272, 0.0], [0.0026894800105764297, 0.006318766691514087, 0.017807630070029064, 0.0, 0.0, 40.24892363494603]], 'compliance_tensor': [[9.8, -2.1, -1.9, 0.0, 0.0, 0.0], [-2.1, 94.8, -1.8, -0.0, 0.0, 0.0], [-1.9, -1.8, 8.8, -0.0, 0.0, 0.0], [0.0, -0.0, -0.0, 326.6, 0.0, 0.0], [0.0, 0.0, 0.0, 0.0, 24.8, 0.0], [0.0, 0.0, 0.0, 0.0, 0.0, 288.4]], 'warnings': [], 'nsites': 40}",0,15,21,15.92,0.22,36.6
149,mp-866071,MgTaOs2,"{'Mg': 1.0, 'Ta': 1.0, 'Os': 2.0}",0.120605727,15.5829277,"{'G_Reuss': 95.0, 'G_VRH': 99.0, 'G_Voigt': 102.0, 'G_Voigt_Reuss_Hill': 99.0, 'K_Reuss': 229.0, 'K_VRH': 229.0, 'K_Voigt': 229.0, 'K_Voigt_Reuss_Hill': 229.0, 'elastic_anisotropy': 0.36, 'elastic_tensor': [[324.0, 181.0, 181.0, 0.0, 0.0, 0.0], [181.0, 324.0, 181.0, 0.0, 0.0, 0.0], [181.0, 181.0, 324.0, 0.0, 0.0, 0.0], [0.0, 0.0, 0.0, 122.0, 0.0, 0.0], [0.0, 0.0, 0.0, 0.0, 122.0, 0.0], [0.0, 0.0, 0.0, 0.0, 0.0, 122.0]], 'homogeneous_poisson': 0.31, 'poisson_ratio': 0.31, 'universal_anisotropy': 0.36, 'elastic_tensor_original': [[325.8607683363114, 181.67124900850376, 181.67124900850376, 0.0, 0.0, 0.0], [181.35799938161526, 324.96254466175, 181.35799938161526, 0.0, 0.0, 0.0], [181.25918371427758, 181.25918371427758, 322.44498910173, 0.0, 0.0, 0.0], [-0.00020296040157837794, -7.287693610587912e-05, -0.0001917672045011398, 122.44571704013424, 0.0, 0.0], [-0.0011923226066819059, -0.0010585393028244522, -0.001023759301330149, 0.0, 122.44597038026593, 0.0], [-0.0009443900505624558, -0.0012340901357157778, -0.0007571168809581676, 0.0, 0.0, 122.44687489647455]], 'compliance_tensor': [[5.1, -1.8, -1.8, -0.0, 0.0, 0.0], [-1.8, 5.1, -1.8, 0.0, -0.0, 0.0], [-1.8, -1.8, 5.1, 0.0, 0.0, -0.0], [-0.0, 0.0, 0.0, 8.2, -0.0, -0.0], [0.0, -0.0, 0.0, -0.0, 8.2, -0.0], [0.0, 0.0, -0.0, -0.0, -0.0, 8.2]], 'warnings': [], 'nsites': 4}",0,99,229,0.36,0.31,259.38
150,mp-867249,TaAlFe2,"{'Ta': 1.0, 'Al': 1.0, 'Fe': 2.0}",0.169520023,10.23769205,"{'G_Reuss': 137.0, 'G_VRH': 137.0, 'G_Voigt': 137.0, 'G_Voigt_Reuss_Hill': 137.0, 'K_Reuss': 222.0, 'K_VRH': 222.0, 'K_Voigt': 222.0, 'K_Voigt_Reuss_Hill': 222.0, 'elastic_anisotropy': 0.0, 'elastic_tensor': [[406.0, 130.0, 130.0, 0.0, 0.0, 0.0], [130.0, 406.0, 130.0, 0.0, 0.0, 0.0], [130.0, 130.0, 406.0, 0.0, 0.0, 0.0], [0.0, 0.0, 0.0, 137.0, 0.0, 0.0], [0.0, 0.0, 0.0, 0.0, 137.0, 0.0], [0.0, 0.0, 0.0, 0.0, 0.0, 137.0]], 'homogeneous_poisson': 0.24, 'poisson_ratio': 0.24, 'universal_anisotropy': 0.0, 'elastic_tensor_original': [[405.453179757839, 129.7832856137379, 129.78249088170506, -9.980766081238638e-05, -0.00016533024729990724, 0.0001566286553367542], [129.99922409503472, 405.57002741777313, 129.99922409503472, 0.0, 0.0, 0.0], [130.00291454343665, 130.0096025789996, 405.66892466029327, -1.1668955121094593e-05, 0.0001160479591767964, 3.5808855405970686e-05], [0.002263015379715819, 0.0020969155001336623, 0.0021496021367707844, 136.66730004097965, 0.0, 0.0], [-0.0022181560794450753, -0.0023301126273477433, -0.002231286068559297, 0.0, 136.66713555788675, 0.0], [-0.0015247550317892464, -0.0015396350584454266, -0.0015061883940960738, 0.0, 0.0, 136.66704783852035]], 'compliance_tensor': [[2.9, -0.7, -0.7, -0.0, 0.0, 0.0], [-0.7, 2.9, -0.7, 0.0, -0.0, 0.0], [-0.7, -0.7, 2.9, 0.0, 0.0, -0.0], [-0.0, 0.0, 0.0, 7.3, -0.0, -0.0], [0.0, -0.0, 0.0, -0.0, 7.3, -0.0], [0.0, 0.0, -0.0, -0.0, -0.0, 7.3]], 'warnings': [], 'nsites': 4}",0,137,222,0,0.24,339.76
151,mp-12385,Ba2YTaO6,"{'Ba': 2.0, 'Y': 1.0, 'Ta': 1.0, 'O': 6.0}",0.546651847,6.839389213,"{'G_Reuss': 74.0, 'G_VRH': 75.0, 'G_Voigt': 77.0, 'G_Voigt_Reuss_Hill': 75.0, 'K_Reuss': 133.0, 'K_VRH': 134.0, 'K_Voigt': 134.0, 'K_Voigt_Reuss_Hill': 134.0, 'elastic_anisotropy': 0.16, 'elastic_tensor': [[224.0, 86.0, 78.0, 0.0, 0.0, -5.0], [86.0, 224.0, 78.0, 0.0, 0.0, 5.0], [78.0, 78.0, 274.0, 0.0, 0.0, 0.0], [0.0, 0.0, 0.0, 64.0, 0.0, 0.0], [0.0, 0.0, 0.0, 0.0, 64.0, 0.0], [-5.0, 5.0, 0.0, 0.0, 0.0, 94.0]], 'homogeneous_poisson': 0.26, 'poisson_ratio': 0.26, 'universal_anisotropy': 0.16, 'elastic_tensor_original': [[223.87327205091998, 85.67309308434804, 78.90096777751101, 0.0, 0.0, -5.1210541037344495], [85.68224812640176, 223.8754439338485, 78.8942698720233, 0.0, 0.0, 5.123657097761105], [77.40626259372046, 77.40626259372046, 274.46721857703625, 0.0, 0.0, -5.964861308400967e-08], [0.15688450656412495, 0.11330702418457582, 0.03664099851763162, 64.46681107299908, -0.408864538009935, -0.021241698077636866], [-0.017900612761929665, -0.04599352140262946, -0.0341514295242852, 0.4094857777587381, 64.47783028854349, -0.0002973398797713539], [-5.776491014900598, 5.796366684725496, 0.026685510814087154, 4.053331938061032e-06, -5.873331311565411e-06, 93.94691713412867]], 'compliance_tensor': [[5.5, -1.7, -1.1, -0.0, 0.0, 0.4], [-1.7, 5.5, -1.1, -0.0, -0.0, -0.4], [-1.1, -1.1, 4.3, 0.0, 0.0, -0.0], [-0.0, -0.0, 0.0, 15.5, -0.0, -0.0], [0.0, -0.0, 0.0, -0.0, 15.5, -0.0], [0.4, -0.4, -0.0, -0.0, -0.0, 10.7]], 'warnings': [], 'nsites': 10}",0,75,134,0.16,0.26,189
152,mp-12427,Sr2TaGaO6,"{'Sr': 2.0, 'Ta': 1.0, 'Ga': 1.0, 'O': 6.0}",0.581750751,6.841673429,"{'G_Reuss': 91.0, 'G_VRH': 92.0, 'G_Voigt': 93.0, 'G_Voigt_Reuss_Hill': 92.0, 'K_Reuss': 151.0, 'K_VRH': 151.0, 'K_Voigt': 151.0, 'K_Voigt_Reuss_Hill': 151.0, 'elastic_anisotropy': 0.12, 'elastic_tensor': [[263.0, 82.0, 103.0, 0.0, 0.0, -5.0], [82.0, 263.0, 103.0, 0.0, 0.0, 5.0], [103.0, 103.0, 255.0, 0.0, 0.0, 0.0], [0.0, 0.0, 0.0, 108.0, 0.0, 0.0], [0.0, 0.0, 0.0, 0.0, 108.0, 0.0], [-5.0, 5.0, 0.0, 0.0, 0.0, 85.0]], 'homogeneous_poisson': 0.25, 'poisson_ratio': 0.25, 'universal_anisotropy': 0.12, 'elastic_tensor_original': [[262.53679734443523, 81.75012127179453, 95.2903861730189, 1.1800201053734986e-05, 1.1800201053734986e-05, -8.437256155335639], [81.75012127179464, 262.53679734443523, 95.2903861730189, 1.1800201053860247e-05, 1.2206354999409661e-05, 8.437176953989166], [111.50245366658939, 111.50245366658939, 254.55623944770372, 3.1600452618085314e-05, 3.1600452618085314e-05, -4.4000630227713724e-05], [6.443990499407422e-07, 2.7134184922459823e-05, 0.0, 107.70505136859289, 2.5578421043032797, 1.3889283313057454e-05], [2.7134184922459823e-05, -6.443976799393113e-07, 0.0, -2.55784210430328, 107.70505136859289, 1.3244905762029408e-05], [-2.2037817079059505, 2.203781707909911, 0.0, 0.0, 2.690523537454926e-07, 84.87044101128166]], 'compliance_tensor': [[4.696859026344388, -0.8550077608274438, -1.5604947165335818, 3.4929470424038085e-07, -1.1832821129086075e-06, 0.34804464388543604], [-0.8550077608274435, 4.696859026344624, -1.5604947165336136, -7.325612236471077e-07, 2.1540254543054103e-07, -0.34804464388513207], [-1.5604947165335827, -1.5604947165336134, 5.196097871560614, -1.3090556121790003e-06, -7.764027567742871e-07, 1.0338277037130436e-13], [3.492947042403808e-07, -7.325612236471069e-07, -1.3090556121790005e-06, 9.284615598741155, 2.066445663002167e-13, -1.4897032891466816e-06], [-1.1832821129086075e-06, 2.15402545430541e-07, -7.76402756774287e-07, 2.0664456630021675e-13, 9.284615598740789, -1.2572220605792653e-06], [0.3480446438854361, -0.3480446438851322, 1.034100599318332e-13, -1.4897032891466816e-06, -1.2572220605792649e-06, 11.826302897583512]], 'warnings': [], 'nsites': 10}",0,92,151,0.12,0.25,230
153,mp-23089,SrTa2Bi2O9,"{'Sr': 1.0, 'Ta': 2.0, 'Bi': 2.0, 'O': 9.0}",0.493154489,8.370517286,"{'G_Reuss': 59.0, 'G_VRH': 61.0, 'G_Voigt': 62.0, 'G_Voigt_Reuss_Hill': 61.0, 'K_Reuss': 79.0, 'K_VRH': 83.0, 'K_Voigt': 87.0, 'K_Voigt_Reuss_Hill': 83.0, 'elastic_anisotropy': 0.3, 'elastic_tensor': [[196.0, 24.0, 58.0, 0.0, 0.0, 0.0], [24.0, 121.0, 44.0, 0.0, 0.0, 0.0], [58.0, 44.0, 219.0, 0.0, 0.0, 0.0], [0.0, 0.0, 0.0, 52.0, 0.0, 0.0], [0.0, 0.0, 0.0, 0.0, 67.0, 0.0], [0.0, 0.0, 0.0, 0.0, 0.0, 54.0]], 'homogeneous_poisson': 0.21, 'poisson_ratio': 0.21, 'universal_anisotropy': 0.3, 'elastic_tensor_original': [[218.59098434902643, 43.541846515950475, 56.64627156915524, 0.0, 0.0, 0.0], [44.891113279104076, 120.6623753678536, 25.23839696891282, 0.0, 0.0, 0.0], [58.41464856529602, 23.422967630710687, 195.57223903269147, 0.0, 0.0, 0.0], [0.002215532218275098, 0.003111698433908966, 0.0020287156456316544, 53.82088884574475, 0.0, 0.0], [-0.00020850342125059955, -0.004897892065324208, -6.6070027857004e-05, 0.0, 67.45325819676376, 0.0], [-1.4666673868922202e-06, -9.846671502416709e-06, -3.36666831949943e-06, 0.0, 0.0, 51.528754492039546]], 'compliance_tensor': [[5.6, -0.6, -1.3, 0.0, 0.0, 0.0], [-0.6, 9.0, -1.7, 0.0, 0.0, 0.0], [-1.3, -1.7, 5.3, 0.0, 0.0, 0.0], [0.0, 0.0, 0.0, 19.4, 0.0, 0.0], [0.0, 0.0, 0.0, 0.0, 14.8, 0.0], [0.0, 0.0, 0.0, 0.0, 0.0, 18.6]], 'warnings': [], 'nsites': 28}",0,61,83,0.3,0.21,147.62