,mp_id,Formula,Composition,IPF,Density,Elastic_Tensor,E_above_Hull,G_VRH,K_VRH,Elastic_Anisotropy,poisson_ratio,Y_Modulus
91,mp-863679,ErTaRu2,"{'Er': 1.0, 'Ta': 1.0, 'Ru': 2.0}",0.134172082,13.17567406,"{'G_Reuss': 75.0, 'G_VRH': 79.0, 'G_Voigt': 83.0, 'G_Voigt_Reuss_Hill': 79.0, 'K_Reuss': 181.0, 'K_VRH': 181.0, 'K_Voigt': 181.0, 'K_Voigt_Reuss_Hill': 181.0, 'elastic_anisotropy': 0.48, 'elastic_tensor': [[333.0, 104.0, 104.0, 0.0, 0.0, 0.0], [104.0, 333.0, 104.0, 0.0, 0.0, 0.0], [104.0, 104.0, 333.0, 0.0, 0.0, 0.0], [0.0, 0.0, 0.0, 61.0, 0.0, 0.0], [0.0, 0.0, 0.0, 0.0, 61.0, 0.0], [0.0, 0.0, 0.0, 0.0, 0.0, 61.0]], 'homogeneous_poisson': 0.31, 'poisson_ratio': 0.31, 'universal_anisotropy': 0.48, 'elastic_tensor_original': [[333.1316881499921, 104.43178362344563, 104.43178362344563, -0.056475497488664185, -0.004045678619695647, 0.004045678619695647], [104.43178362344563, 333.13168814999216, 104.43178362344568, -0.004045678619662764, 0.05647549748866715, -0.004049878701285929], [104.43178362344567, 104.43178362344563, 333.1316881499921, -0.004049878701304065, -0.0040498787012829785, 0.05647549748867793], [0.0, 0.0, 0.0, 61.41780006629593, 0.0, 0.0], [0.0, 0.0, 0.0, 0.0, 61.41780006629593, 0.0], [0.0, 0.0, 0.0, 0.0, 0.0, 61.417800066295925]], 'compliance_tensor': [[3.5, -0.8, -0.8, -0.0, 0.0, 0.0], [-0.8, 3.5, -0.8, 0.0, -0.0, -0.0], [-0.8, -0.8, 3.5, 0.0, 0.0, 0.0], [-0.0, 0.0, 0.0, 16.3, 0.0, 0.0], [0.0, -0.0, 0.0, 0.0, 16.3, 0.0], [0.0, -0.0, 0.0, 0.0, 0.0, 16.3]], 'warnings': ['Contains a rare earth element'], 'nsites': 4}",0,79,181,0.48,0.31,206.98
92,mp-864640,Ta2NbIr,"{'Ta': 2.0, 'Nb': 1.0, 'Ir': 1.0}",0.12938278,15.7892851,"{'G_Reuss': 105.0, 'G_VRH': 107.0, 'G_Voigt': 108.0, 'G_Voigt_Reuss_Hill': 107.0, 'K_Reuss': 237.0, 'K_VRH': 237.0, 'K_Voigt': 237.0, 'K_Voigt_Reuss_Hill': 237.0, 'elastic_anisotropy': 0.12, 'elastic_tensor': [[408.0, 152.0, 152.0, 0.0, 0.0, 0.0], [152.0, 408.0, 152.0, 0.0, 0.0, 0.0], [152.0, 152.0, 408.0, 0.0, 0.0, 0.0], [0.0, 0.0, 0.0, 94.0, 0.0, 0.0], [0.0, 0.0, 0.0, 0.0, 94.0, 0.0], [0.0, 0.0, 0.0, 0.0, 0.0, 94.0]], 'homogeneous_poisson': 0.3, 'poisson_ratio': 0.3, 'universal_anisotropy': 0.12, 'elastic_tensor_original': [[408.2939533672657, 151.5667926014433, 151.56665907019126, -6.427945857098637e-05, -8.902083470217699e-06, -2.8891671803116448e-05], [151.6075798639018, 408.3265348065011, 151.60734887087557, -3.524743860505117e-05, -8.1381884697328e-05, 1.7844266415526464e-05], [151.57807665465617, 151.57811907990074, 408.3046899555141, -1.4034816281874749e-07, 1.1869444626956929e-05, -1.804476379098182e-05], [-1.8260026175285827e-05, -8.67801534561131e-05, -5.689673973913752e-05, 94.1531514312749, 0.0, 0.0], [3.087333874195799e-05, 2.2343348174783658e-05, 2.510667241848822e-05, 0.0, 94.15320825114348, 0.0], [-2.536546871627781e-06, 2.8773418581894563e-05, 1.1936774021635747e-05, 0.0, 0.0, 94.15329303105123]], 'compliance_tensor': [[3.1, -0.8, -0.8, -0.0, 0.0, 0.0], [-0.8, 3.1, -0.8, 0.0, -0.0, 0.0], [-0.8, -0.8, 3.1, 0.0, 0.0, -0.0], [-0.0, 0.0, 0.0, 10.6, -0.0, -0.0], [0.0, -0.0, 0.0, -0.0, 10.6, -0.0], [0.0, 0.0, -0.0, -0.0, -0.0, 10.6]], 'warnings': [], 'nsites': 4}",0,107,237,0.12,0.3,278.2
93,mp-864650,Ta2OsW,"{'Ta': 2.0, 'Os': 1.0, 'W': 1.0}",0.117156384,18.39478294,"{'G_Reuss': 131.0, 'G_VRH': 133.0, 'G_Voigt': 134.0, 'G_Voigt_Reuss_Hill': 133.0, 'K_Reuss': 272.0, 'K_VRH': 272.0, 'K_Voigt': 272.0, 'K_Voigt_Reuss_Hill': 272.0, 'elastic_anisotropy': 0.09, 'elastic_tensor': [[481.0, 168.0, 168.0, 0.0, 0.0, 0.0], [168.0, 481.0, 168.0, 0.0, 0.0, 0.0], [168.0, 168.0, 481.0, 0.0, 0.0, 0.0], [0.0, 0.0, 0.0, 119.0, 0.0, 0.0], [0.0, 0.0, 0.0, 0.0, 119.0, 0.0], [0.0, 0.0, 0.0, 0.0, 0.0, 119.0]], 'homogeneous_poisson': 0.29, 'poisson_ratio': 0.29, 'universal_anisotropy': 0.09, 'elastic_tensor_original': [[481.0144371540841, 167.966539819749, 167.966539819749, 0.0, 0.0, 0.0], [167.96480243737193, 481.0127934436658, 167.96480243737193, 0.0, 0.0, 0.0], [167.96637742739256, 167.96637742739256, 481.01432717182763, 0.0, 0.0, 0.0], [-1.2186653244817173e-05, -7.783324763749071e-06, -1.5209983252169655e-05, 118.70934991773805, 0.0, 0.0], [-2.056664400982954e-06, -1.1436654071940839e-05, -1.1039987844435392e-05, 0.0, 118.70935622439777, 0.0], [2.294997473202875e-05, 1.4593317265309382e-05, 9.863322474727787e-06, 0.0, 0.0, 118.70935308773456]], 'compliance_tensor': [[2.5, -0.7, -0.7, 0.0, -0.0, -0.0], [-0.7, 2.5, -0.7, -0.0, 0.0, -0.0], [-0.7, -0.7, 2.5, -0.0, -0.0, 0.0], [0.0, -0.0, -0.0, 8.4, -0.0, -0.0], [-0.0, 0.0, -0.0, -0.0, 8.4, 0.0], [-0.0, -0.0, 0.0, -0.0, 0.0, 8.4]], 'warnings': [], 'nsites': 4}",0,133,272,0.09,0.29,343.14
94,mp-864670,Ta2VOs,"{'Ta': 2.0, 'V': 1.0, 'Os': 1.0}",0.123384885,15.71065085,"{'G_Reuss': 96.0, 'G_VRH': 97.0, 'G_Voigt': 97.0, 'G_Voigt_Reuss_Hill': 97.0, 'K_Reuss': 247.0, 'K_VRH': 247.0, 'K_Voigt': 247.0, 'K_Voigt_Reuss_Hill': 247.0, 'elastic_anisotropy': 0.07, 'elastic_tensor': [[396.0, 173.0, 173.0, 0.0, 0.0, 0.0], [173.0, 396.0, 173.0, 0.0, 0.0, 0.0], [173.0, 173.0, 396.0, 0.0, 0.0, 0.0], [0.0, 0.0, 0.0, 88.0, 0.0, 0.0], [0.0, 0.0, 0.0, 0.0, 88.0, 0.0], [0.0, 0.0, 0.0, 0.0, 0.0, 88.0]], 'homogeneous_poisson': 0.33, 'poisson_ratio': 0.33, 'universal_anisotropy': 0.07, 'elastic_tensor_original': [[396.0854648270962, 172.7538520650488, 172.75442552933336, -1.587943896804259e-05, -1.732302432877373e-05, -2.7027125920355317e-05], [173.4516672313655, 394.5827474755998, 173.45141442431344, -3.845532967824252e-05, 9.022261738691589e-06, 2.6987197346562975e-05], [172.77846181311995, 172.77818897548684, 396.1062434698134, 1.5799239781335303e-05, 1.311256702664123e-05, -5.32923595669914e-05], [1.200999550759881e-05, 1.6449993845599247e-05, 3.2416654536129495e-05, 87.8498901773727, 0.0, 0.0], [0.00016763327060212403, 0.00020700992253227688, 0.00019277992785714072, 0.0, 87.8498870607072, 0.0], [9.833329654276914e-06, 2.0019992509858763e-05, 1.2983328476060988e-05, 0.0, 0.0, 87.8498542407195]], 'compliance_tensor': [[3.4, -1.0, -1.0, 0.0, 0.0, 0.0], [-1.0, 3.4, -1.0, 0.0, 0.0, -0.0], [-1.0, -1.0, 3.4, 0.0, 0.0, -0.0], [0.0, 0.0, 0.0, 11.4, 0.0, 0.0], [0.0, 0.0, 0.0, 0.0, 11.4, 0.0], [0.0, -0.0, -0.0, 0.0, 0.0, 11.4]], 'warnings': [], 'nsites': 4}",0,97,247,0.07,0.33,258.02
95,mp-864782,Ta2MoRu,"{'Ta': 2.0, 'Mo': 1.0, 'Ru': 1.0}",0.118471543,14.13498413,"{'G_Reuss': 105.0, 'G_VRH': 111.0, 'G_Voigt': 116.0, 'G_Voigt_Reuss_Hill': 111.0, 'K_Reuss': 204.0, 'K_VRH': 204.0, 'K_Voigt': 204.0, 'K_Voigt_Reuss_Hill': 204.0, 'elastic_anisotropy': 0.53, 'elastic_tensor': [[421.0, 96.0, 96.0, 0.0, 0.0, 0.0], [96.0, 421.0, 96.0, 0.0, 0.0, 0.0], [96.0, 96.0, 421.0, 0.0, 0.0, 0.0], [0.0, 0.0, 0.0, 85.0, 0.0, 0.0], [0.0, 0.0, 0.0, 0.0, 85.0, 0.0], [0.0, 0.0, 0.0, 0.0, 0.0, 85.0]], 'homogeneous_poisson': 0.27, 'poisson_ratio': 0.27, 'universal_anisotropy': 0.53, 'elastic_tensor_original': [[421.4387328581858, 95.60000106715071, 95.60000106715071, 0.0, 0.0, 0.0], [95.60000106715071, 421.4387328581858, 95.60000106715071, 0.0, 0.0, 0.0], [95.60000106715071, 95.60000106715071, 421.4387328581858, 0.0, 0.0, 0.0], [0.0, 0.0, 0.0, 85.0293820129973, 0.0, 0.0], [0.0, 0.0, 0.0, 0.0, 85.0293820129973, 0.0], [0.0, 0.0, 0.0, 0.0, 0.0, 85.0293820129973]], 'compliance_tensor': [[2.6, -0.5, -0.5, -0.0, 0.0, -0.0], [-0.5, 2.6, -0.5, 0.0, -0.0, 0.0], [-0.5, -0.5, 2.6, 0.0, 0.0, 0.0], [-0.0, 0.0, 0.0, 11.8, 0.0, 0.0], [0.0, -0.0, 0.0, 0.0, 11.8, 0.0], [-0.0, 0.0, 0.0, 0.0, 0.0, 11.8]], 'warnings': [], 'nsites': 4}",0,111,204,0.53,0.27,281.94
96,mp-864903,MgTaRu2,"{'Mg': 1.0, 'Ta': 1.0, 'Ru': 2.0}",0.120008725,10.98079468,"{'G_Reuss': 87.0, 'G_VRH': 87.0, 'G_Voigt': 87.0, 'G_Voigt_Reuss_Hill': 87.0, 'K_Reuss': 197.0, 'K_VRH': 197.0, 'K_Voigt': 197.0, 'K_Voigt_Reuss_Hill': 197.0, 'elastic_anisotropy': 0.0, 'elastic_tensor': [[310.0, 141.0, 141.0, 0.0, 0.0, 0.0], [141.0, 310.0, 141.0, 0.0, 0.0, 0.0], [141.0, 141.0, 310.0, 0.0, 0.0, 0.0], [0.0, 0.0, 0.0, 88.0, 0.0, 0.0], [0.0, 0.0, 0.0, 0.0, 88.0, 0.0], [0.0, 0.0, 0.0, 0.0, 0.0, 88.0]], 'homogeneous_poisson': 0.31, 'poisson_ratio': 0.31, 'universal_anisotropy': 0.0, 'elastic_tensor_original': [[309.56543648537934, 140.71346722594484, 140.71346722594484, 0.0, 0.0, 0.0], [140.7174376854902, 309.56891629483033, 140.7174376854902, 0.0, 0.0, 0.0], [140.72322183501421, 140.72322183501421, 309.5754011054916, 0.0, 0.0, 0.0], [0.0006642800550854157, 0.0005148633760272286, 0.0005172767095620481, 87.95767445392062, 0.0, 0.0], [-0.0003916466991447437, -0.0005050533752152256, -0.0003931300326006022, 0.0, 87.9576963605891, 0.0], [0.07384675279043328, 0.0733543694162697, 0.07215456931677369, 0.0, 0.0, 87.96216458095962]], 'compliance_tensor': [[4.5, -1.4, -1.4, -0.0, 0.0, 0.0], [-1.4, 4.5, -1.4, 0.0, -0.0, 0.0], [-1.4, -1.4, 4.5, 0.0, 0.0, -0.0], [-0.0, 0.0, 0.0, 11.4, 0.0, -0.0], [0.0, -0.0, 0.0, 0.0, 11.4, 0.0], [0.0, 0.0, -0.0, -0.0, 0.0, 11.4]], 'warnings': [], 'nsites': 4}",0,87,197,0,0.31,227.94
97,mp-865172,YbTaRu2,"{'Yb': 1.0, 'Ta': 1.0, 'Ru': 2.0}",0.151636663,13.91338818,"{'G_Reuss': 66.0, 'G_VRH': 70.0, 'G_Voigt': 75.0, 'G_Voigt_Reuss_Hill': 70.0, 'K_Reuss': 179.0, 'K_VRH': 179.0, 'K_Voigt': 179.0, 'K_Voigt_Reuss_Hill': 179.0, 'elastic_anisotropy': 0.71, 'elastic_tensor': [[326.0, 106.0, 106.0, -0.0, 0.0, 0.0], [106.0, 326.0, 106.0, -0.0, 0.0, 0.0], [106.0, 106.0, 326.0, -0.0, 0.0, 0.0], [-0.0, -0.0, -0.0, 52.0, 0.0, 0.0], [0.0, 0.0, 0.0, 0.0, 52.0, -0.0], [0.0, 0.0, 0.0, 0.0, -0.0, 52.0]], 'homogeneous_poisson': 0.33, 'poisson_ratio': 0.33, 'universal_anisotropy': 0.71, 'elastic_tensor_original': [[273.64160894244054, 130.86648198700013, 138.3976408808747, -26.54624652928485, 0.0, 0.0], [132.23436394958046, 268.78191491648215, 136.333296058697, 28.76960670525588, 0.0, 0.0], [148.17218155462734, 148.1722495534076, 237.9220656619223, 0.0, 0.0, 0.0], [-19.186028204546687, 35.21140123880027, 0.41850856008766374, 90.42658137321382, 0.0, 0.0], [0.0, 0.0, 0.0, 0.0, 91.40588530121357, -26.93458164511224], [0.0, 0.0, 0.0, 0.0, -27.00036573848304, 72.2829864476993]], 'compliance_tensor': [[3.7, -0.9, -0.9, -0.0, -0.0, -0.0], [-0.9, 3.7, -0.9, 0.0, 0.0, -0.0], [-0.9, -0.9, 3.7, 0.0, -0.0, 0.0], [-0.0, 0.0, 0.0, 19.3, -0.0, -0.0], [-0.0, 0.0, -0.0, -0.0, 19.3, 0.0], [-0.0, -0.0, 0.0, -0.0, 0.0, 19.3]], 'warnings': ['Contains a rare earth element'], 'nsites': 4}",0,70,179,0.71,0.33,186.2
98,mp-865262,TmTaRu2,"{'Tm': 1.0, 'Ta': 1.0, 'Ru': 2.0}",0.148455561,13.30404691,"{'G_Reuss': 76.0, 'G_VRH': 78.0, 'G_Voigt': 81.0, 'G_Voigt_Reuss_Hill': 78.0, 'K_Reuss': 180.0, 'K_VRH': 180.0, 'K_Voigt': 180.0, 'K_Voigt_Reuss_Hill': 180.0, 'elastic_anisotropy': 0.34, 'elastic_tensor': [[323.0, 109.0, 109.0, 0.0, 0.0, 0.0], [109.0, 323.0, 109.0, 0.0, 0.0, 0.0], [109.0, 109.0, 323.0, 0.0, 0.0, 0.0], [0.0, 0.0, 0.0, 63.0, 0.0, 0.0], [0.0, 0.0, 0.0, 0.0, 63.0, 0.0], [0.0, 0.0, 0.0, 0.0, 0.0, 63.0]], 'homogeneous_poisson': 0.31, 'poisson_ratio': 0.31, 'universal_anisotropy': 0.34, 'elastic_tensor_original': [[323.4754710294404, 108.64808203810662, 108.64808203810662, 0.07589537582262082, -0.029590200692217863, 0.029590200692217863], [108.64808203810662, 323.4754710294404, 108.64808203810662, -0.02959020069222925, -0.07589537582262655, -0.029582600794781064], [108.64808203810662, 108.64808203810662, 323.4754710294404, -0.02958260079478679, -0.02958260079478679, -0.07589537582262082], [0.0, 0.0, 0.0, 63.477708325268495, 0.0, 0.0], [0.0, 0.0, 0.0, 0.0, 63.477708325268495, 0.0], [0.0, 0.0, 0.0, 0.0, 0.0, 63.477708325268495]], 'compliance_tensor': [[3.7, -0.9, -0.9, -0.0, 0.0, -0.0], [-0.9, 3.7, -0.9, 0.0, -0.0, 0.0], [-0.9, -0.9, 3.7, 0.0, 0.0, -0.0], [-0.0, 0.0, 0.0, 15.8, 0.0, 0.0], [0.0, -0.0, 0.0, 0.0, 15.8, 0.0], [-0.0, 0.0, -0.0, 0.0, 0.0, 15.8]], 'warnings': ['Contains a rare earth element'], 'nsites': 4}",0,78,180,0.34,0.31,204.36
99,mp-865804,TaZnRh2,"{'Ta': 1.0, 'Zn': 1.0, 'Rh': 2.0}",0.14337138,12.47647371,"{'G_Reuss': -317.0, 'G_VRH': -139.0, 'G_Voigt': 40.0, 'G_Voigt_Reuss_Hill': -139.0, 'K_Reuss': 217.0, 'K_VRH': 217.0, 'K_Voigt': 217.0, 'K_Voigt_Reuss_Hill': 217.0, 'elastic_anisotropy': -5.63, 'elastic_tensor': [[161.0, 245.0, 245.0, 0.0, 0.0, 0.0], [245.0, 161.0, 245.0, 0.0, 0.0, 0.0], [245.0, 245.0, 161.0, 0.0, 0.0, 0.0], [0.0, 0.0, 0.0, 94.0, 0.0, 0.0], [0.0, 0.0, 0.0, 0.0, 94.0, 0.0], [0.0, 0.0, 0.0, 0.0, 0.0, 94.0]], 'homogeneous_poisson': 0.91, 'poisson_ratio': 0.91, 'universal_anisotropy': -5.63, 'elastic_tensor_original': [[160.92815790616027, 244.92062553561078, 244.92062553561078, 0.0, 0.0, 0.0], [244.92942113795993, 160.93724554097298, 244.92942113795993, 0.0, 0.0, 0.0], [244.92987575690123, 244.92987575690123, 160.93705219769245, 0.0, 0.0, 0.0], [0.0011975439748996295, 0.0014556866480520709, 0.0014547332850744707, 94.16287852001084, 0.0, 0.0], [-0.001692665040776766, -0.0013921324460786366, -0.0016964083764617515, 0.0, 94.16287277036847, 0.0], [7.69894330288651e-05, 0.00014143610730457012, 0.00012034627899484756, 0.0, 0.0, 94.16282075689388]], 'compliance_tensor': [[-7.4, 4.5, 4.5, 0.0, 0.0, -0.0], [4.5, -7.4, 4.5, -0.0, 0.0, 0.0], [4.5, 4.5, -7.4, 0.0, -0.0, 0.0], [0.0, -0.0, 0.0, 10.6, 0.0, 0.0], [0.0, 0.0, -0.0, 0.0, 10.6, 0.0], [-0.0, 0.0, 0.0, 0.0, 0.0, 10.6]], 'warnings': ['Elastic tensor has a negative eigenvalue', 'c11 and c12 are within 5% or c12 is greater than c11', 'c11 and c13 are within 5% or c13 is greater than c11', 'c11 and c23 are within 5% or c23 is greater than c11', 'One or more K, G below 2 GPa'], 'nsites': 4}",0,-139,217,-5.63,0.91,-530.98
100,mp-865805,TaZnCo2,"{'Ta': 1.0, 'Zn': 1.0, 'Co': 2.0}",0.172414573,11.63296528,"{'G_Reuss': 67.0, 'G_VRH': 75.0, 'G_Voigt': 84.0, 'G_Voigt_Reuss_Hill': 75.0, 'K_Reuss': 200.0, 'K_VRH': 200.0, 'K_Voigt': 200.0, 'K_Voigt_Reuss_Hill': 200.0, 'elastic_anisotropy': 1.31, 'elastic_tensor': [[255.0, 172.0, 172.0, 0.0, 0.0, 0.0], [172.0, 255.0, 172.0, 0.0, 0.0, 0.0], [172.0, 172.0, 255.0, 0.0, 0.0, 0.0], [0.0, 0.0, 0.0, 113.0, 0.0, 0.0], [0.0, 0.0, 0.0, 0.0, 113.0, 0.0], [0.0, 0.0, 0.0, 0.0, 0.0, 113.0]], 'homogeneous_poisson': 0.33, 'poisson_ratio': 0.33, 'universal_anisotropy': 1.31, 'elastic_tensor_original': [[261.2043069114475, 172.01620235112605, 172.0152159381156, -3.945812440762495e-05, 4.848056139107577e-05, -0.00011332180851214236], [176.13719318437805, 246.9070088716611, 176.13719318437805, 0.0, 0.0, 0.0], [169.175954755332, 169.17737617010425, 257.67443880370905, 7.723206057833905e-05, -2.670641347101444e-05, -0.00017431348252026994], [0.0015085708847485419, 0.001508027551922666, 0.0015059075475853778, 112.69950611731123, 0.0, 0.0], [0.0005066758560934046, 0.0005055158585678842, 0.0005040391906727343, 0.0, 112.69951953065409, 0.0], [0.0027595318662179307, 0.0027593652056690657, 0.0027510552138945176, 0.0, 0.0, 112.69951867732381]], 'compliance_tensor': [[8.6, -3.5, -3.5, -0.0, 0.0, 0.0], [-3.5, 8.6, -3.5, 0.0, -0.0, 0.0], [-3.5, -3.5, 8.6, 0.0, -0.0, -0.0], [-0.0, 0.0, 0.0, 8.9, -0.0, -0.0], [0.0, -0.0, -0.0, -0.0, 8.9, 0.0], [0.0, 0.0, -0.0, -0.0, 0.0, 8.9]], 'warnings': [], 'nsites': 4}",0,75,200,1.31,0.33,199.5
101,mp-866127,LuTaOs2,"{'Lu': 1.0, 'Ta': 1.0, 'Os': 2.0}",0.131802196,17.77960627,"{'G_Reuss': 95.0, 'G_VRH': 96.0, 'G_Voigt': 97.0, 'G_Voigt_Reuss_Hill': 96.0, 'K_Reuss': 226.0, 'K_VRH': 226.0, 'K_Voigt': 226.0, 'K_Voigt_Reuss_Hill': 226.0, 'elastic_anisotropy': 0.11, 'elastic_tensor': [[380.0, 149.0, 149.0, 0.0, 0.0, 0.0], [149.0, 380.0, 149.0, -0.0, 0.0, 0.0], [149.0, 149.0, 380.0, -0.0, 0.0, 0.0], [0.0, -0.0, -0.0, 85.0, 0.0, 0.0], [0.0, 0.0, 0.0, 0.0, 85.0, 0.0], [0.0, 0.0, 0.0, 0.0, 0.0, 85.0]], 'homogeneous_poisson': 0.31, 'poisson_ratio': 0.31, 'universal_anisotropy': 0.11, 'elastic_tensor_original': [[383.6014421689464, 150.04819393607644, 149.84361758028146, 2.528590949434126, -1.5365319528660066, -2.036902820502207], [151.06848233004882, 377.3199342389058, 144.12160908826863, 1.572864839728187, -1.5437374315869268, -1.1777498423032255], [148.79139619966986, 149.35129059705923, 379.7754152576204, 2.3503011337949675, -1.675847345599068, -2.410274861905097], [0.21331745660385046, 0.3979558685152919, -0.6716880933272045, 85.00054035811453, -0.3257761098169609, -0.0026370679628233158], [-0.5837845886543874, 9.193791127583805e-07, 0.5874070848695656, 0.4220335279039497, 85.30648722789105, 0.38203762859304136], [1.2578831636649905, -0.9830167996125344, -0.21330086920479316, 0.3809699295848265, 0.12774751240006868, 85.61093328385223]], 'compliance_tensor': [[3.4, -0.9, -0.9, -0.0, -0.0, -0.0], [-0.9, 3.4, -0.9, 0.0, 0.0, -0.0], [-0.9, -0.9, 3.4, 0.0, -0.0, 0.0], [-0.0, 0.0, 0.0, 11.7, -0.0, -0.0], [-0.0, 0.0, -0.0, -0.0, 11.7, 0.0], [-0.0, -0.0, 0.0, -0.0, 0.0, 11.7]], 'warnings': ['Contains a rare earth element'], 'nsites': 4}",0,96,226,0.11,0.31,251.52
102,mp-867788,TaGaOs2,"{'Ta': 1.0, 'Ga': 1.0, 'Os': 2.0}",0.109868752,17.1805793,"{'G_Reuss': 125.0, 'G_VRH': 126.0, 'G_Voigt': 126.0, 'G_Voigt_Reuss_Hill': 126.0, 'K_Reuss': 273.0, 'K_VRH': 273.0, 'K_Voigt': 273.0, 'K_Voigt_Reuss_Hill': 273.0, 'elastic_anisotropy': 0.03, 'elastic_tensor': [[425.0, 198.0, 198.0, 0.0, 0.0, 0.0], [198.0, 425.0, 198.0, 0.0, 0.0, 0.0], [198.0, 198.0, 425.0, 0.0, 0.0, 0.0], [0.0, 0.0, 0.0, 135.0, 0.0, 0.0], [0.0, 0.0, 0.0, 0.0, 135.0, 0.0], [0.0, 0.0, 0.0, 0.0, 0.0, 135.0]], 'homogeneous_poisson': 0.3, 'poisson_ratio': 0.3, 'universal_anisotropy': 0.03, 'elastic_tensor_original': [[425.16617021265597, 197.87786830055836, 197.8935130504437, 0.03655821553901182, -0.0385887830760622, -0.04721744512850991], [197.61986974667485, 424.9431571213437, 197.60699280540254, -0.03767942084873264, 0.01779678827784911, 0.04167612919009688], [197.3209796321081, 197.36364260480036, 424.72177697664256, 0.038325236473451735, -0.03836063595294493, 0.07203394082746077], [-0.0038478225198433857, 0.00801734575420201, -9.447928782425431e-05, 134.67379897272198, -0.005711043128094256, -0.0055265672720550855], [-0.008017807100564007, 0.0038475883861426637, 9.358427031423222e-05, 0.016615922010905483, 134.65511622350635, -0.005355259144644489], [-0.00025859593906707494, -0.0002585818852681126, -1.4408684755081809e-08, -8.620475713327105e-05, 0.01124916594954169, 134.6644909917504]], 'compliance_tensor': [[3.3, -1.1, -1.1, 0.0, 0.0, 0.0], [-1.1, 3.3, -1.1, -0.0, -0.0, 0.0], [-1.1, -1.1, 3.3, -0.0, 0.0, -0.0], [0.0, -0.0, -0.0, 7.4, 0.0, 0.0], [0.0, -0.0, 0.0, 0.0, 7.4, -0.0], [0.0, 0.0, -0.0, 0.0, -0.0, 7.4]], 'warnings': [], 'nsites': 4}",0,126,273,0.03,0.3,327.6
103,mp-867901,ScTaTc2,"{'Sc': 1.0, 'Ta': 1.0, 'Tc': 2.0}",0.130639748,10.6043824,"{'G_Reuss': 72.0, 'G_VRH': 73.0, 'G_Voigt': 75.0, 'G_Voigt_Reuss_Hill': 73.0, 'K_Reuss': 193.0, 'K_VRH': 193.0, 'K_Voigt': 193.0, 'K_Voigt_Reuss_Hill': 193.0, 'elastic_anisotropy': 0.2, 'elastic_tensor': [[317.0, 131.0, 131.0, 0.0, 0.0, 0.0], [131.0, 317.0, 131.0, 0.0, 0.0, 0.0], [131.0, 131.0, 317.0, 0.0, 0.0, 0.0], [0.0, 0.0, 0.0, 62.0, 0.0, 0.0], [0.0, 0.0, 0.0, 0.0, 62.0, 0.0], [0.0, 0.0, 0.0, 0.0, 0.0, 62.0]], 'homogeneous_poisson': 0.33, 'poisson_ratio': 0.33, 'universal_anisotropy': 0.2, 'elastic_tensor_original': [[316.46451626053226, 129.76371501541456, 129.7636745806714, 0.0, 0.0, 6.953329033746956e-05], [133.38155090460862, 318.08419128952, 133.3810378327613, 0.000340327316269769, 0.00025603745898226406, 0.0010389875982142814], [129.7587746666022, 129.7587746666022, 316.46246465573756, 0.0, 0.0, 4.043511633407762e-05], [0.00013192173441312435, 0.00013351460195901667, 3.256140411915869e-05, 62.31700017801713, 9.713335097035667e-06, 0.0], [2.9570754681565192e-05, -1.3560025989639371e-05, -7.419849008019924e-05, 9.713334567295235e-06, 62.31715012304176, 0.0], [0.00017476084596104304, 0.00012284170026805212, 0.0007703678938739941, 0.0, 0.0, 62.31657854091681]], 'compliance_tensor': [[4.2, -1.2, -1.2, -0.0, 0.0, -0.0], [-1.2, 4.2, -1.2, 0.0, -0.0, -0.0], [-1.2, -1.2, 4.2, 0.0, 0.0, 0.0], [-0.0, 0.0, 0.0, 16.0, -0.0, 0.0], [0.0, -0.0, 0.0, -0.0, 16.0, 0.0], [-0.0, -0.0, 0.0, 0.0, 0.0, 16.0]], 'warnings': [], 'nsites': 4}",0,73,193,0.2,0.33,194.18