,mp_id,Formula,Composition,IPF,Density,Elastic_Tensor,E_above_Hull,G_VRH,K_VRH,Elastic_Anisotropy,poisson_ratio,Y_Modulus
26,mp-2211,V3Pt,"{'V': 3.0, 'Pt': 1.0}",0.144952443,10.34946525,"{'G_Reuss': 92.0, 'G_VRH': 94.0, 'G_Voigt': 95.0, 'G_Voigt_Reuss_Hill': 94.0, 'K_Reuss': 218.0, 'K_VRH': 218.0, 'K_Voigt': 218.0, 'K_Voigt_Reuss_Hill': 218.0, 'elastic_anisotropy': 0.2, 'elastic_tensor': [[377.0, 138.0, 138.0, 0.0, 0.0, 0.0], [138.0, 377.0, 138.0, 0.0, 0.0, 0.0], [138.0, 138.0, 377.0, 0.0, 0.0, 0.0], [0.0, 0.0, 0.0, 79.0, 0.0, 0.0], [0.0, 0.0, 0.0, 0.0, 79.0, 0.0], [0.0, 0.0, 0.0, 0.0, 0.0, 79.0]], 'homogeneous_poisson': 0.31, 'poisson_ratio': 0.31, 'universal_anisotropy': 0.2, 'elastic_tensor_original': [[376.6744905432854, 138.1552982738588, 138.1552982738588, 0.0, 0.0, 0.0], [138.15598344598166, 376.6730309016935, 138.15598344598166, 0.0, 0.0, 0.0], [138.2078171191802, 138.2078171191802, 376.9329318800649, 0.0, 0.0, 0.0], [0.0002685034803274057, 0.0004454102685146649, 0.000323903615984718, 79.42919954812508, 0.0, 0.0], [-1.9823242359826093e-05, -0.0003361867623614566, -4.245584993324363e-05, 0.0, 79.42880744297557, 0.0], [0.0006715258401731503, 0.0006700298252787695, 0.0001438794978460515, 0.0, 0.0, 79.42893392819087]], 'compliance_tensor': [[3.3, -0.9, -0.9, 0.0, 0.0, -0.0], [-0.9, 3.3, -0.9, 0.0, 0.0, 0.0], [-0.9, -0.9, 3.3, 0.0, 0.0, 0.0], [0.0, 0.0, 0.0, 12.6, 0.0, 0.0], [0.0, 0.0, 0.0, 0.0, 12.6, 0.0], [-0.0, 0.0, 0.0, 0.0, 0.0, 12.6]], 'warnings': [], 'nsites': 8}",0,94,218,0.2,0.31,246.28
27,mp-22568,V3Ga,"{'V': 3.0, 'Ga': 1.0}",0.140975111,6.726541559,"{'G_Reuss': 33.0, 'G_VRH': 38.0, 'G_Voigt': 43.0, 'G_Voigt_Reuss_Hill': 38.0, 'K_Reuss': 168.0, 'K_VRH': 168.0, 'K_Voigt': 168.0, 'K_Voigt_Reuss_Hill': 168.0, 'elastic_anisotropy': 1.6, 'elastic_tensor': [[264.0, 120.0, 120.0, 0.0, 0.0, 0.0], [120.0, 264.0, 120.0, 0.0, 0.0, 0.0], [120.0, 120.0, 264.0, 0.0, 0.0, 0.0], [0.0, 0.0, 0.0, 24.0, 0.0, 0.0], [0.0, 0.0, 0.0, 0.0, 24.0, 0.0], [0.0, 0.0, 0.0, 0.0, 0.0, 24.0]], 'homogeneous_poisson': 0.4, 'poisson_ratio': 0.4, 'universal_anisotropy': 1.6, 'elastic_tensor_original': [[263.84825189418945, 120.47595668068537, 120.47595668068537, 0.0, 0.0, 0.0], [120.47671807262016, 263.84642758970307, 120.47671807262016, 0.0, 0.0, 0.0], [120.47629958904844, 120.47629958904844, 263.8443117453235, 0.0, 0.0, 0.0], [-0.0007179710215733116, -8.754679123362847e-05, 1.667002371916028e-05, 23.881660643622773, 0.0, 0.0], [0.00022056031382664316, 0.0002467770177953061, -0.00011720350009752593, 0.0, 23.88142584995536, 0.0], [-0.0003871838842424499, -0.0002537303610231275, 0.00012083350526167562, 0.0, 0.0, 23.88100552269063]], 'compliance_tensor': [[5.3, -1.7, -1.7, -0.0, -0.0, -0.0], [-1.7, 5.3, -1.7, 0.0, 0.0, 0.0], [-1.7, -1.7, 5.3, 0.0, 0.0, -0.0], [-0.0, 0.0, 0.0, 41.9, 0.0, 0.0], [-0.0, 0.0, 0.0, 0.0, 41.9, 0.0], [-0.0, 0.0, -0.0, 0.0, 0.0, 41.9]], 'warnings': [], 'nsites': 8}",0,38,168,1.6,0.4,106.4
28,mp-22700,V3Se4,"{'V': 3.0, 'Se': 4.0}",0.184429269,6.149351277,"{'G_Reuss': 53.0, 'G_VRH': 54.0, 'G_Voigt': 56.0, 'G_Voigt_Reuss_Hill': 54.0, 'K_Reuss': 79.0, 'K_VRH': 80.0, 'K_Voigt': 81.0, 'K_Voigt_Reuss_Hill': 80.0, 'elastic_anisotropy': 0.25, 'elastic_tensor': [[137.0, 50.0, 54.0, 0.0, 7.0, 0.0], [50.0, 162.0, 38.0, 0.0, 9.0, 0.0], [54.0, 38.0, 149.0, 0.0, 20.0, 0.0], [0.0, 0.0, 0.0, 48.0, 0.0, 7.0], [7.0, 9.0, 20.0, 0.0, 66.0, 0.0], [0.0, 0.0, 0.0, 7.0, 0.0, 62.0]], 'homogeneous_poisson': 0.22, 'poisson_ratio': 0.22, 'universal_anisotropy': 0.25, 'elastic_tensor_original': [[162.1218978541526, 40.85471858985482, 46.88365608477333, -9.867254697260908, 0.0, 0.0], [40.24616213509282, 137.29919410183746, 34.25532087879908, 3.3627952166143458, 0.0, 0.0], [46.799287104147226, 34.18815276763315, 187.49328677732123, -15.165481083831063, 0.0, 0.0], [-9.941374889571486, 2.6594410888754827, -14.409599871716912, 46.556258539539186, 0.0, 0.0], [-0.030297853857651567, 0.01865345599892359, 0.03438049097804398, 0.04245572461981255, 55.57669118360631, -9.605496290371113], [-0.0027797215098584313, -0.01060511794340822, -0.008789403550732456, -0.0034877613415005013, -10.089738829876454, 54.414700578752495]], 'compliance_tensor': [[9.2, -2.2, -2.8, 0.0, 0.1, 0.0], [-2.2, 7.1, -1.0, 0.0, -0.4, 0.0], [-2.8, -1.0, 8.2, 0.0, -2.1, 0.0], [0.0, 0.0, 0.0, 21.3, 0.0, -2.2], [0.1, -0.4, -2.1, 0.0, 15.8, 0.0], [0.0, 0.0, 0.0, -2.2, 0.0, 16.3]], 'warnings': [], 'nsites': 7}",0,54,80,0.25,0.22,131.76
29,mp-22877,VCl2,"{'V': 1.0, 'Cl': 2.0}",0.084409421,2.873112941,"{'G_Reuss': 1.0, 'G_VRH': 7.0, 'G_Voigt': 12.0, 'G_Voigt_Reuss_Hill': 7.0, 'K_Reuss': 2.0, 'K_VRH': 10.0, 'K_Voigt': 18.0, 'K_Voigt_Reuss_Hill': 10.0, 'elastic_anisotropy': 82.06, 'elastic_tensor': [[63.0, 14.0, 1.0, -0.0, 0.0, 0.0], [14.0, 63.0, 1.0, 0.0, 0.0, 0.0], [1.0, 1.0, 2.0, 0.0, 0.0, 0.0], [-0.0, 0.0, 0.0, 0.0, 0.0, 0.0], [0.0, 0.0, 0.0, 0.0, 0.0, -0.0], [0.0, 0.0, 0.0, 0.0, -0.0, 24.0]], 'homogeneous_poisson': 0.23, 'poisson_ratio': 0.23, 'universal_anisotropy': 82.06, 'elastic_tensor_original': [[63.31898528074294, 13.808323325677446, 0.29502148468162975, 1.5684644340671656, 0.0, 0.0], [14.104330352317348, 63.67597847835281, 1.2731564515842304, -1.7461933792989506, 0.0, 0.0], [1.42127433668132, 1.4212744767296048, 2.4510599860585645, 0.0, 0.0, 0.0], [0.13815845830941162, 0.05844195637696233, -0.048494451821755054, 0.28903214521128856, 0.0, 0.0], [6.193337873654459e-06, 1.3803343452782673e-05, 6.7733382990475805e-06, 5.431670648761388e-05, 0.4201697313701409, 0.13191143670753228], [5.606337798506345e-05, 3.7416696467813653e-05, -1.229334312435005e-05, 5.498004378891942e-05, 0.0549879004618073, 24.014633723133652]], 'compliance_tensor': [[17.1, -4.0, -5.9, 27.9, 0.0, 0.0], [-4.0, 17.1, -5.9, -27.9, 0.0, 0.0], [-5.9, -5.9, 413.3, 0.0, 0.0, -0.0], [27.9, -27.9, -0.0, 2894.3, 0.0, 0.0], [-0.0, 0.0, 0.0, 0.0, 2894.3, 55.9], [0.0, 0.0, -0.0, 0.0, 55.9, 42.1]], 'warnings': ['One or more K, G below 2 GPa'], 'nsites': 3}",0,7,10,82.06,0.23,17.22
30,mp-24728,VH2,"{'V': 1.0, 'H': 2.0}",0.105170402,4.697635445,"{'G_Reuss': 91.0, 'G_VRH': 91.0, 'G_Voigt': 91.0, 'G_Voigt_Reuss_Hill': 91.0, 'K_Reuss': 175.0, 'K_VRH': 175.0, 'K_Voigt': 175.0, 'K_Voigt_Reuss_Hill': 175.0, 'elastic_anisotropy': 0.01, 'elastic_tensor': [[291.0, 117.0, 117.0, 0.0, 0.0, 0.0], [117.0, 291.0, 117.0, 0.0, 0.0, 0.0], [117.0, 117.0, 291.0, 0.0, 0.0, 0.0], [0.0, 0.0, 0.0, 94.0, 0.0, 0.0], [0.0, 0.0, 0.0, 0.0, 94.0, 0.0], [0.0, 0.0, 0.0, 0.0, 0.0, 94.0]], 'homogeneous_poisson': 0.28, 'poisson_ratio': 0.28, 'universal_anisotropy': 0.01, 'elastic_tensor_original': [[290.0276199447507, 118.309218480238, 118.309218480238, 0.0, 0.0, 0.0], [116.39588827487366, 291.0955336853575, 116.39617767556179, 0.0007920925305063684, 0.0006699483575745404, 0.000495955065929366], [116.3564607578922, 116.35143231567378, 291.07171285773995, 0.0006283247031086056, 0.0006209463289065518, 0.0004485971315129218], [2.0306630464618966e-05, -9.723397609307632e-06, -2.9096724903191053e-05, 94.36601277354742, 0.0, 0.0], [2.1313404721593394e-05, -7.955669163727605e-05, -1.0843230127007802e-05, 0.0, 94.36609052316224, 0.0], [0.00039014069638682356, 0.000279157250550652, 0.00038081070194039186, 0.0, 0.0, 94.36687475391027]], 'compliance_tensor': [[4.5, -1.3, -1.3, -0.0, 0.0, -0.0], [-1.3, 4.5, -1.3, -0.0, -0.0, 0.0], [-1.3, -1.3, 4.5, 0.0, 0.0, -0.0], [-0.0, -0.0, 0.0, 10.6, 0.0, -0.0], [0.0, -0.0, 0.0, 0.0, 10.6, -0.0], [-0.0, 0.0, -0.0, -0.0, -0.0, 10.6]], 'warnings': [], 'nsites': 3}",0,91,175,0.01,0.28,232.96
31,mp-2540,VTc,"{'V': 1.0, 'Tc': 1.0}",0.132733611,8.926404379,"{'G_Reuss': 121.0, 'G_VRH': 125.0, 'G_Voigt': 129.0, 'G_Voigt_Reuss_Hill': 125.0, 'K_Reuss': 254.0, 'K_VRH': 254.0, 'K_Voigt': 254.0, 'K_Voigt_Reuss_Hill': 254.0, 'elastic_anisotropy': 0.35, 'elastic_tensor': [[483.0, 139.0, 139.0, 0.0, 0.0, 0.0], [139.0, 483.0, 139.0, 0.0, 0.0, 0.0], [139.0, 139.0, 483.0, 0.0, 0.0, 0.0], [0.0, 0.0, 0.0, 101.0, 0.0, 0.0], [0.0, 0.0, 0.0, 0.0, 101.0, 0.0], [0.0, 0.0, 0.0, 0.0, 0.0, 101.0]], 'homogeneous_poisson': 0.29, 'poisson_ratio': 0.29, 'universal_anisotropy': 0.35, 'elastic_tensor_original': [[483.39734779228735, 139.21867229496382, 139.21867229496382, 0.0, 0.0, 0.0], [139.21817781017214, 483.3979574830528, 139.21817781017214, 0.0, 0.0, 0.0], [139.2147777889715, 139.2147777889715, 483.394749486741, 0.0, 0.0, 0.0], [4.680339184527654e-05, 3.556653230830524e-05, 0.00013452349248886008, 100.87367111473897, 0.0, 0.0], [-7.654998612891727e-05, -0.00016515329566395667, 5.441635398261532e-05, 0.0, 100.87348417125155, 0.0], [2.6052860499468813e-05, 0.0001353298966188579, 8.121643858693904e-05, 0.0, 0.0, 100.87368123104302]], 'compliance_tensor': [[2.4, -0.5, -0.5, 0.0, 0.0, -0.0], [-0.5, 2.4, -0.5, -0.0, 0.0, 0.0], [-0.5, -0.5, 2.4, 0.0, -0.0, 0.0], [0.0, -0.0, 0.0, 9.9, -0.0, -0.0], [0.0, 0.0, -0.0, -0.0, 9.9, -0.0], [-0.0, 0.0, 0.0, -0.0, -0.0, 9.9]], 'warnings': [], 'nsites': 2}",0,125,254,0.35,0.29,322.5
32,mp-2554,Al3V,"{'Al': 3.0, 'V': 1.0}",0.098946257,3.714657219,"{'G_Reuss': 98.0, 'G_VRH': 100.0, 'G_Voigt': 102.0, 'G_Voigt_Reuss_Hill': 100.0, 'K_Reuss': 120.0, 'K_VRH': 120.0, 'K_Voigt': 120.0, 'K_Voigt_Reuss_Hill': 120.0, 'elastic_anisotropy': 0.25, 'elastic_tensor': [[226.0, 91.0, 46.0, 0.0, 0.0, 0.0], [91.0, 226.0, 46.0, 0.0, 0.0, 0.0], [46.0, 46.0, 262.0, 0.0, 0.0, 0.0], [0.0, 0.0, 0.0, 101.0, 0.0, 0.0], [0.0, 0.0, 0.0, 0.0, 101.0, 0.0], [0.0, 0.0, 0.0, 0.0, 0.0, 133.0]], 'homogeneous_poisson': 0.17, 'poisson_ratio': 0.17, 'universal_anisotropy': 0.25, 'elastic_tensor_original': [[226.34210964693779, 90.63398620100958, 45.41504609643478, 0.0, 0.0, 0.0], [90.62071267648153, 226.3314352829303, 45.40188133790745, 0.0, 0.0, 0.0], [46.75675271495572, 46.75675271495572, 262.1869038460475, 0.0, 0.0, 0.0], [9.253332088482131e-06, -4.7100011971477e-05, -1.795664073864281e-05, 100.95652731190272, 0.0, 0.0], [-0.00011557004539344709, -7.929337000509234e-05, -0.00010860012438222857, 0.0, 100.95647504851958, 0.0], [0.00020291014666004876, 0.0001814666493033893, 0.00017307677387199687, 0.0, 0.0, 133.1500532903272]], 'compliance_tensor': [[5.3, -2.0, -0.6, 0.0, -0.0, -0.0], [-2.0, 5.3, -0.6, -0.0, 0.0, 0.0], [-0.6, -0.6, 4.0, -0.0, 0.0, -0.0], [0.0, -0.0, -0.0, 9.9, 0.0, -0.0], [-0.0, 0.0, 0.0, 0.0, 9.9, 0.0], [-0.0, 0.0, -0.0, -0.0, 0.0, 7.5]], 'warnings': [], 'nsites': 4}",0,100,120,0.25,0.17,234
33,mp-2567,V3Si,"{'V': 3.0, 'Si': 1.0}",0.126289062,5.778142097,"{'G_Reuss': 73.0, 'G_VRH': 74.0, 'G_Voigt': 74.0, 'G_Voigt_Reuss_Hill': 74.0, 'K_Reuss': 196.0, 'K_VRH': 196.0, 'K_Voigt': 196.0, 'K_Voigt_Reuss_Hill': 196.0, 'elastic_anisotropy': 0.11, 'elastic_tensor': [[313.0, 137.0, 137.0, 0.0, 0.0, 0.0], [137.0, 313.0, 137.0, 0.0, 0.0, 0.0], [137.0, 137.0, 313.0, 0.0, 0.0, 0.0], [0.0, 0.0, 0.0, 65.0, 0.0, 0.0], [0.0, 0.0, 0.0, 0.0, 65.0, 0.0], [0.0, 0.0, 0.0, 0.0, 0.0, 65.0]], 'homogeneous_poisson': 0.33, 'poisson_ratio': 0.33, 'universal_anisotropy': 0.11, 'elastic_tensor_original': [[313.2387944619296, 137.0361328876022, 137.0361328876022, 0.0, 0.0, 0.0], [137.0341795141909, 313.2385858572599, 137.0341795141909, 0.0, 0.0, 0.0], [137.03758785212818, 137.03758785212818, 313.2414222757199, 0.0, 0.0, 0.0], [5.566662746612985e-07, -0.000274109804224332, -0.0003683630702400198, 65.15627684039315, 0.0, 0.0], [0.0001192032481934474, 6.336328808000366e-05, -7.60666123410195e-05, 0.0, 65.15653348354319, 0.0], [-0.0003751597320514855, -0.00037823972985282265, -0.00025976648113255093, 0.0, 0.0, 65.15582637071489]], 'compliance_tensor': [[4.4, -1.3, -1.3, -0.0, 0.0, -0.0], [-1.3, 4.4, -1.3, -0.0, -0.0, 0.0], [-1.3, -1.3, 4.4, 0.0, -0.0, -0.0], [-0.0, -0.0, 0.0, 15.3, -0.0, -0.0], [0.0, -0.0, -0.0, -0.0, 15.3, -0.0], [-0.0, 0.0, -0.0, -0.0, -0.0, 15.3]], 'warnings': [], 'nsites': 8}",0,74,196,0.11,0.33,196.84
34,mp-2678,VPt,"{'V': 1.0, 'Pt': 1.0}",0.144982145,14.25905335,"{'G_Reuss': 131.0, 'G_VRH': 141.0, 'G_Voigt': 151.0, 'G_Voigt_Reuss_Hill': 141.0, 'K_Reuss': 243.0, 'K_VRH': 243.0, 'K_Voigt': 243.0, 'K_Voigt_Reuss_Hill': 243.0, 'elastic_anisotropy': 0.75, 'elastic_tensor': [[517.0, 68.0, 150.0, 0.0, 0.0, 0.0], [68.0, 517.0, 150.0, 0.0, 0.0, 0.0], [150.0, 150.0, 417.0, 0.0, 0.0, 0.0], [0.0, 0.0, 0.0, 160.0, 0.0, 0.0], [0.0, 0.0, 0.0, 0.0, 160.0, 0.0], [0.0, 0.0, 0.0, 0.0, 0.0, 72.0]], 'homogeneous_poisson': 0.26, 'poisson_ratio': 0.26, 'universal_anisotropy': 0.75, 'elastic_tensor_original': [[517.166411844231, 67.59310227575617, 148.0471314936897, 0.0, 0.0, 0.0], [67.59380677457003, 517.1665780453607, 148.0470520163063, 0.0, 0.0, 0.0], [152.22345531164893, 152.22345531164893, 417.05852421157033, 0.0, 0.0, 0.0], [1.728334168840313e-05, -7.524336969769609e-05, 6.868336652943996e-05, 159.83048430515058, 0.0, 0.0], [-4.9976690818427335e-05, -8.085670574357403e-05, -3.629668420627354e-05, 0.0, 159.83056382518907, 0.0], [0.00011503007987856106, 7.926005503967342e-05, 8.517672581670905e-05, 0.0, 0.0, 72.04368428512215]], 'compliance_tensor': [[2.2, -0.1, -0.8, -0.0, 0.0, 0.0], [-0.1, 2.2, -0.8, -0.0, -0.0, 0.0], [-0.8, -0.8, 2.9, 0.0, 0.0, 0.0], [-0.0, -0.0, 0.0, 6.3, 0.0, 0.0], [0.0, -0.0, 0.0, 0.0, 6.3, 0.0], [0.0, 0.0, 0.0, 0.0, 0.0, 13.9]], 'warnings': [], 'nsites': 2}",0,141,243,0.75,0.26,355.32
35,mp-2705,VPt3,"{'V': 1.0, 'Pt': 3.0}",0.141736843,17.56594294,"{'G_Reuss': 105.0, 'G_VRH': 111.0, 'G_Voigt': 117.0, 'G_Voigt_Reuss_Hill': 111.0, 'K_Reuss': 241.0, 'K_VRH': 241.0, 'K_Voigt': 241.0, 'K_Voigt_Reuss_Hill': 241.0, 'elastic_anisotropy': 0.59, 'elastic_tensor': [[340.0, 204.0, 184.0, 0.0, 0.0, 0.0], [204.0, 340.0, 184.0, 0.0, 0.0, 0.0], [184.0, 184.0, 343.0, 0.0, 0.0, 0.0], [0.0, 0.0, 0.0, 136.0, 0.0, 0.0], [0.0, 0.0, 0.0, 0.0, 136.0, 0.0], [0.0, 0.0, 0.0, 0.0, 0.0, 163.0]], 'homogeneous_poisson': 0.3, 'poisson_ratio': 0.3, 'universal_anisotropy': 0.59, 'elastic_tensor_original': [[339.66731323852804, 203.80812160060742, 185.11233499170217, 0.0, 0.0, 0.0], [203.81342774509227, 339.66505247203094, 185.11689714231807, 0.0, 0.0, 0.0], [183.53184831196373, 183.53184831196373, 342.88721798166506, 0.0, 0.0, 0.0], [0.00023371339850374135, 0.00047574346599792746, 0.00035260676499383503, 135.8439696599184, 0.0, 0.0], [0.00045314012635655384, 0.001041920290537681, 0.0008512435707030481, 0.0, 135.84408858328487, 0.0], [0.0007870668756334875, -0.000264996737018515, 0.00020063671993302682, 0.0, 0.0, 162.61917251383667]], 'compliance_tensor': [[5.1, -2.2, -1.6, 0.0, -0.0, -0.0], [-2.2, 5.1, -1.6, -0.0, 0.0, 0.0], [-1.6, -1.6, 4.6, -0.0, -0.0, 0.0], [0.0, -0.0, -0.0, 7.4, -0.0, -0.0], [-0.0, 0.0, -0.0, -0.0, 7.4, 0.0], [-0.0, 0.0, 0.0, -0.0, 0.0, 6.1]], 'warnings': [], 'nsites': 4}",0,111,241,0.59,0.3,288.6
36,mp-28731,V6C5,"{'V': 6.0, 'C': 5.0}",0.114509171,5.617822508,"{'G_Reuss': 173.0, 'G_VRH': 175.0, 'G_Voigt': 176.0, 'G_Voigt_Reuss_Hill': 175.0, 'K_Reuss': 238.0, 'K_VRH': 238.0, 'K_Voigt': 238.0, 'K_Voigt_Reuss_Hill': 238.0, 'elastic_anisotropy': 0.08, 'elastic_tensor': [[454.0, 117.0, 133.0, 0.0, -21.0, 0.0], [117.0, 454.0, 133.0, 0.0, 21.0, 0.0], [133.0, 133.0, 474.0, 0.0, 0.0, 0.0], [0.0, 0.0, 0.0, 189.0, 0.0, 21.0], [-21.0, 21.0, 0.0, 0.0, 189.0, 0.0], [0.0, 0.0, 0.0, 21.0, 0.0, 169.0]], 'homogeneous_poisson': 0.21, 'poisson_ratio': 0.21, 'universal_anisotropy': 0.08, 'elastic_tensor_original': [[453.9705404370117, 116.3653070279153, 132.4143816240603, 0.0, 20.764566018967884, 0.0], [116.35579721908867, 453.94256307795763, 132.37975487380356, 0.0, -20.721610738783454, 0.0], [133.57323715717888, 133.57312788651436, 473.86027029965703, 0.0, 0.0, 0.0], [0.0003378281481446369, -0.0006254818979424622, -0.0002443893604676648, 189.0631411192793, 0.00029673161623388136, -20.98003763027074], [20.994764325265457, -21.000455714783328, -0.5827935716077602, 0.0, 189.0358656756934, 0.0], [2.0626924130571968e-05, 9.364682355838874e-05, 5.3543442689366046e-05, -20.896304753902797, -0.00013388667117555673, 168.37453203968718]], 'compliance_tensor': [[2.5, -0.5, -0.6, -0.0, 0.3, -0.0], [-0.5, 2.5, -0.6, 0.0, -0.3, -0.0], [-0.6, -0.6, 2.4, 0.0, -0.0, 0.0], [-0.0, 0.0, -0.0, 5.4, -0.0, -0.7], [0.3, -0.3, -0.0, -0.0, 5.4, -0.0], [-0.0, -0.0, 0.0, -0.7, -0.0, 6.0]], 'warnings': [], 'nsites': 33}",0,175,238,0.08,0.21,423.5
37,mp-292,V3As,"{'V': 3.0, 'As': 1.0}",0.133890511,7.121142889,"{'G_Reuss': 108.0, 'G_VRH': 109.0, 'G_Voigt': 110.0, 'G_Voigt_Reuss_Hill': 109.0, 'K_Reuss': 194.0, 'K_VRH': 194.0, 'K_Voigt': 194.0, 'K_Voigt_Reuss_Hill': 194.0, 'elastic_anisotropy': 0.11, 'elastic_tensor': [[368.0, 107.0, 107.0, 0.0, 0.0, 0.0], [107.0, 368.0, 107.0, 0.0, 0.0, 0.0], [107.0, 107.0, 368.0, 0.0, 0.0, 0.0], [0.0, 0.0, 0.0, 97.0, 0.0, 0.0], [0.0, 0.0, 0.0, 0.0, 97.0, 0.0], [0.0, 0.0, 0.0, 0.0, 0.0, 97.0]], 'homogeneous_poisson': 0.26, 'poisson_ratio': 0.26, 'universal_anisotropy': 0.11, 'elastic_tensor_original': [[368.3208209187938, 106.71756329115402, 106.71756329115402, 0.0, 0.0, 0.0], [106.71925179627156, 368.3221243812732, 106.71925179627156, 0.0, 0.0, 0.0], [106.7240226555998, 106.7240226555998, 368.3238938327686, 0.0, 0.0, 0.0], [6.533985296601315e-05, -0.0005233991143611978, 4.9323598378495274e-05, 96.6555105087312, 0.0, 0.0], [-6.651658953878735e-05, 7.289638215329641e-05, -0.00020263340591374144, 0.0, 96.65488153503046, 0.0], [-0.00011450620391445197, -9.152996825205533e-05, 0.00020451046927881663, 0.0, 0.0, 96.6547992863003]], 'compliance_tensor': [[3.1, -0.7, -0.7, 0.0, -0.0, -0.0], [-0.7, 3.1, -0.7, -0.0, 0.0, 0.0], [-0.7, -0.7, 3.1, 0.0, -0.0, 0.0], [0.0, -0.0, 0.0, 10.3, -0.0, -0.0], [-0.0, 0.0, -0.0, -0.0, 10.3, -0.0], [-0.0, 0.0, 0.0, -0.0, -0.0, 10.3]], 'warnings': [], 'nsites': 8}",0,109,194,0.11,0.26,274.68
38,mp-30883,V4Zn5,"{'V': 4.0, 'Zn': 5.0}",0.175216622,6.973256357,"{'G_Reuss': 50.0, 'G_VRH': 56.0, 'G_Voigt': 61.0, 'G_Voigt_Reuss_Hill': 56.0, 'K_Reuss': 125.0, 'K_VRH': 125.0, 'K_Voigt': 125.0, 'K_Voigt_Reuss_Hill': 125.0, 'elastic_anisotropy': 1.04, 'elastic_tensor': [[174.0, 109.0, 109.0, 0.0, 0.0, 0.0], [109.0, 170.0, 90.0, 0.0, 0.0, 0.0], [109.0, 90.0, 170.0, 0.0, 0.0, 0.0], [0.0, 0.0, 0.0, 66.0, 0.0, 0.0], [0.0, 0.0, 0.0, 0.0, 85.0, 0.0], [0.0, 0.0, 0.0, 0.0, 0.0, 85.0]], 'homogeneous_poisson': 0.31, 'poisson_ratio': 0.31, 'universal_anisotropy': 1.04, 'elastic_tensor_original': [[169.5933871360466, 89.49462286749502, 108.64956462780486, 0.0, 0.0, 0.0], [89.62399937490446, 169.6680916145493, 108.780418758637, 0.0, 0.0, 0.0], [109.60138142478546, 109.60138142478546, 173.69810146694923, 0.0, 0.0, 0.0], [-0.2918073444108656, -0.11139643108852511, 0.9209069972058079, 85.11284778865208, -0.013393283317794878, 0.16303831532324708], [-0.1576438246813446, -0.285049361115906, 0.8937695274119594, -0.0030973651213227348, 85.16942087375989, 0.19877785749199942], [0.0002762565045647107, 0.00016636990237689766, -0.00030612315370489527, 0.0, 0.0, 65.82899485949132]], 'compliance_tensor': [[12.2, -5.2, -5.2, 0.0, 0.0, -0.0], [-5.2, 10.3, -2.1, 0.0, 0.0, 0.0], [-5.2, -2.1, 10.3, -0.0, -0.0, 0.0], [0.0, 0.0, -0.0, 15.2, 0.0, -0.0], [0.0, 0.0, -0.0, 0.0, 11.7, -0.0], [-0.0, 0.0, 0.0, -0.0, -0.0, 11.7]], 'warnings': [], 'nsites': 9}",0,56,125,1.04,0.31,146.72