,mp_id,Formula,Composition,IPF,Density,Elastic_Tensor,E_above_Hull,G_VRH,K_VRH,Elastic_Anisotropy,poisson_ratio,Y_Modulus
91,mp-760375,Li3VS4,"{'Li': 3.0, 'V': 1.0, 'S': 4.0}",0.10674969,1.572514509,"{'G_Reuss': 5.0, 'G_VRH': 7.0, 'G_Voigt': 8.0, 'G_Voigt_Reuss_Hill': 7.0, 'K_Reuss': 13.0, 'K_VRH': 13.0, 'K_Voigt': 13.0, 'K_Voigt_Reuss_Hill': 13.0, 'elastic_anisotropy': 2.4, 'elastic_tensor': [[32.0, 3.0, 3.0, 0.0, 0.0, 0.0], [3.0, 32.0, 3.0, 0.0, 0.0, 0.0], [3.0, 3.0, 32.0, 0.0, 0.0, 0.0], [0.0, 0.0, 0.0, 4.0, 0.0, 0.0], [0.0, 0.0, 0.0, 0.0, 4.0, 0.0], [0.0, 0.0, 0.0, 0.0, 0.0, 4.0]], 'homogeneous_poisson': 0.28, 'poisson_ratio': 0.28, 'universal_anisotropy': 2.4, 'elastic_tensor_original': [[31.680938461887976, 3.4341353026922072, 3.4341353026922072, 0.0, 0.0, 0.0], [3.4333569735620375, 31.681172310930002, 3.4333569735620375, 0.0, 0.0, 0.0], [3.4332617288139953, 3.4332617288139953, 31.681086350172162, 0.0, 0.0, 0.0], [0.034097449062644405, 0.033971789049901106, 0.0349072141764992, 3.7842882180380113, 0.0, 0.0], [0.00013299989733864465, 0.0001536332335693477, 0.0001554165607498552, 0.0, 3.7826872579786164, 0.0], [8.069331280762027e-05, 0.00010424671636324636, 7.875670901595866e-05, 0.0, 0.0, 3.782536097890871]], 'compliance_tensor': [[32.2, -3.2, -3.2, 0.0, -0.0, 0.0], [-3.2, 32.2, -3.2, 0.0, 0.0, -0.0], [-3.2, -3.2, 32.2, 0.0, 0.0, 0.0], [0.0, 0.0, 0.0, 264.3, 0.0, 0.0], [-0.0, 0.0, 0.0, 0.0, 264.3, 0.0], [0.0, -0.0, 0.0, 0.0, 0.0, 264.3]], 'warnings': [], 'nsites': 8}",0,7,13,2.4,0.28,17.92
92,mp-8044,V2PC,"{'V': 2.0, 'P': 1.0, 'C': 1.0}",0.10646944,5.394856628,"{'G_Reuss': 144.0, 'G_VRH': 149.0, 'G_Voigt': 155.0, 'G_Voigt_Reuss_Hill': 149.0, 'K_Reuss': 227.0, 'K_VRH': 227.0, 'K_Voigt': 228.0, 'K_Voigt_Reuss_Hill': 227.0, 'elastic_anisotropy': 0.4, 'elastic_tensor': [[379.0, 119.0, 165.0, 0.0, 0.0, 0.0], [119.0, 379.0, 165.0, 0.0, 0.0, 0.0], [165.0, 165.0, 392.0, 0.0, 0.0, 0.0], [0.0, 0.0, 0.0, 206.0, 0.0, 0.0], [0.0, 0.0, 0.0, 0.0, 206.0, 0.0], [0.0, 0.0, 0.0, 0.0, 0.0, 130.0]], 'homogeneous_poisson': 0.23, 'poisson_ratio': 0.23, 'universal_anisotropy': 0.4, 'elastic_tensor_original': [[378.4920259571318, 119.70836265513428, 164.7808922806062, 0.0, 0.0, 0.0], [120.34490923457075, 378.6481244039271, 165.55810427263395, 0.0, 0.0, 0.0], [165.213269986193, 165.21336114342282, 391.9705794443009, 0.0, 0.0, 0.0], [-8.916666933441366e-06, -3.175000095352665e-05, 0.00012644333713916048, 205.95113725441652, 0.0, 0.0], [-0.00018460300472609352, -0.00012912044098642374, 6.869403669945226e-05, 0.0, 206.0314361246011, 0.0], [-0.0001704202860708029, 9.263939851808173e-05, 9.998914738776998e-05, 0.0, 0.0, 130.32839325116842]], 'compliance_tensor': [[3.3, -0.5, -1.2, -0.0, 0.0, 0.0], [-0.5, 3.3, -1.2, -0.0, 0.0, 0.0], [-1.2, -1.2, 3.5, 0.0, 0.0, -0.0], [-0.0, -0.0, 0.0, 4.9, 0.0, -0.0], [0.0, 0.0, 0.0, 0.0, 4.9, 0.0], [0.0, 0.0, -0.0, -0.0, -0.0, 7.7]], 'warnings': [], 'nsites': 8}",0,149,227,0.4,0.23,366.54
93,mp-862700,AlVOs2,"{'Al': 1.0, 'V': 1.0, 'Os': 2.0}",0.105975747,13.88221108,"{'G_Reuss': 140.0, 'G_VRH': 140.0, 'G_Voigt': 140.0, 'G_Voigt_Reuss_Hill': 140.0, 'K_Reuss': 273.0, 'K_VRH': 273.0, 'K_Voigt': 273.0, 'K_Voigt_Reuss_Hill': 273.0, 'elastic_anisotropy': 0.01, 'elastic_tensor': [[449.0, 185.0, 185.0, 0.0, 0.0, 0.0], [185.0, 449.0, 185.0, 0.0, 0.0, 0.0], [185.0, 185.0, 449.0, 0.0, 0.0, 0.0], [0.0, 0.0, 0.0, 145.0, 0.0, 0.0], [0.0, 0.0, 0.0, 0.0, 145.0, 0.0], [0.0, 0.0, 0.0, 0.0, 0.0, 145.0]], 'homogeneous_poisson': 0.28, 'poisson_ratio': 0.28, 'universal_anisotropy': 0.01, 'elastic_tensor_original': [[448.5452763838551, 185.17333939865904, 185.17333939865904, 0.0, 0.0, 0.0], [185.173305525122, 448.5453212356043, 185.173305525122, 0.0, 0.0, 0.0], [183.29162067837805, 183.29162067837805, 448.7714574483631, 0.0, 0.0, 0.0], [0.003045724319301424, 0.0038929236663568863, 0.0035219906189032407, 145.4338513361192, 0.0, 0.0], [1.166665767344669e-05, 9.936659009893959e-06, 9.276659517019555e-06, 0.0, 145.43154724122834, 0.0], [-0.003876923678686232, -0.003506870630555444, -0.0030324776628401257, 0.0, 0.0, 145.4338598561126]], 'compliance_tensor': [[2.9, -0.9, -0.9, -0.0, -0.0, 0.0], [-0.9, 2.9, -0.9, 0.0, -0.0, -0.0], [-0.9, -0.9, 2.9, -0.0, 0.0, -0.0], [-0.0, 0.0, -0.0, 6.9, -0.0, -0.0], [-0.0, -0.0, 0.0, -0.0, 6.9, -0.0], [0.0, -0.0, -0.0, -0.0, -0.0, 6.9]], 'warnings': [], 'nsites': 4}",0,140,273,0.01,0.28,358.4
94,mp-865462,MnV2Os,"{'Mn': 1.0, 'V': 2.0, 'Os': 1.0}",0.122840304,11.1380714,"{'G_Reuss': 115.0, 'G_VRH': 115.0, 'G_Voigt': 115.0, 'G_Voigt_Reuss_Hill': 115.0, 'K_Reuss': 265.0, 'K_VRH': 265.0, 'K_Voigt': 265.0, 'K_Voigt_Reuss_Hill': 265.0, 'elastic_anisotropy': 0.01, 'elastic_tensor': [[425.0, 184.0, 184.0, 0.0, 0.0, 0.0], [184.0, 425.0, 184.0, 0.0, 0.0, 0.0], [184.0, 184.0, 425.0, 0.0, 0.0, 0.0], [0.0, 0.0, 0.0, 111.0, 0.0, 0.0], [0.0, 0.0, 0.0, 0.0, 111.0, 0.0], [0.0, 0.0, 0.0, 0.0, 0.0, 111.0]], 'homogeneous_poisson': 0.31, 'poisson_ratio': 0.31, 'universal_anisotropy': 0.01, 'elastic_tensor_original': [[425.4807366414369, 183.71251802251174, 183.71251802251174, 0.0, 0.0, 0.0], [185.64608528311825, 423.7169613664099, 185.64614799971847, 0.0, 0.0, 0.0], [183.26590567162884, 183.26528367624198, 427.0083746464668, 7.580762612400105e-05, 0.00016707351189931252, -1.838550466958714e-05], [-9.030340521664425e-05, -7.031429566305271e-05, -6.711926519703883e-05, 111.16725813905887, 0.0, 0.0], [0.00012654772890331425, 0.00012366784094504328, 0.00011990858481341794, 0.0, 111.16719563963368, 0.0], [5.485881845501717e-05, 5.207889415795867e-05, 2.998794211527719e-05, 0.0, 0.0, 111.1672364865059]], 'compliance_tensor': [[3.2, -1.0, -1.0, -0.0, -0.0, -0.0], [-1.0, 3.2, -1.0, 0.0, 0.0, -0.0], [-1.0, -1.0, 3.2, 0.0, -0.0, 0.0], [-0.0, 0.0, 0.0, 9.0, -0.0, -0.0], [-0.0, 0.0, -0.0, -0.0, 9.0, 0.0], [-0.0, -0.0, 0.0, -0.0, 0.0, 9.0]], 'warnings': [], 'nsites': 4}",0,115,265,0.01,0.31,301.3
95,mp-865585,VGeRu2,"{'V': 1.0, 'Ge': 1.0, 'Ru': 2.0}",0.113425602,9.737062542,"{'G_Reuss': 100.0, 'G_VRH': 100.0, 'G_Voigt': 100.0, 'G_Voigt_Reuss_Hill': 100.0, 'K_Reuss': 239.0, 'K_VRH': 239.0, 'K_Voigt': 239.0, 'K_Voigt_Reuss_Hill': 239.0, 'elastic_anisotropy': 0.01, 'elastic_tensor': [[379.0, 169.0, 169.0, 0.0, 0.0, 0.0], [169.0, 379.0, 169.0, 0.0, 0.0, 0.0], [169.0, 169.0, 379.0, 0.0, 0.0, 0.0], [0.0, 0.0, 0.0, 97.0, 0.0, 0.0], [0.0, 0.0, 0.0, 0.0, 97.0, 0.0], [0.0, 0.0, 0.0, 0.0, 0.0, 97.0]], 'homogeneous_poisson': 0.32, 'poisson_ratio': 0.32, 'universal_anisotropy': 0.01, 'elastic_tensor_original': [[378.96059651180997, 169.3346171984108, 169.3346171984108, 0.0, 0.0, 0.0], [168.02274548321546, 378.6465391839003, 168.02274548321546, 0.0, 0.0, 0.0], [168.4878454742016, 168.4878454742016, 378.15765306584876, 0.0, 0.0, 0.0], [-0.0010718356832313952, -0.00010130990704495876, -0.0007221760040512876, 97.41067557677879, 0.0, 0.0], [-0.0004650295733215057, -0.0001090765665852297, 8.88465851487677e-05, 0.0, 97.41087554659532, 0.0], [-0.024133637856827875, -0.022442839408173525, -0.045814254631024495, 0.0, 0.0, 97.41043128033625]], 'compliance_tensor': [[3.6, -1.1, -1.1, 0.0, -0.0, 0.0], [-1.1, 3.6, -1.1, 0.0, 0.0, -0.0], [-1.1, -1.1, 3.6, -0.0, 0.0, -0.0], [0.0, 0.0, -0.0, 10.3, -0.0, -0.0], [-0.0, 0.0, 0.0, -0.0, 10.3, -0.0], [0.0, -0.0, -0.0, -0.0, -0.0, 10.3]], 'warnings': [], 'nsites': 4}",0,100,239,0.01,0.32,264
96,mp-865914,TiVTc2,"{'Ti': 1.0, 'V': 1.0, 'Tc': 2.0}",0.1384413,8.499065354,"{'G_Reuss': 92.0, 'G_VRH': 94.0, 'G_Voigt': 97.0, 'G_Voigt_Reuss_Hill': 94.0, 'K_Reuss': 233.0, 'K_VRH': 233.0, 'K_Voigt': 233.0, 'K_Voigt_Reuss_Hill': 233.0, 'elastic_anisotropy': 0.3, 'elastic_tensor': [[402.0, 149.0, 149.0, 0.0, 0.0, 0.0], [149.0, 402.0, 149.0, 0.0, 0.0, 0.0], [149.0, 149.0, 402.0, 0.0, 0.0, 0.0], [0.0, 0.0, 0.0, 77.0, 0.0, 0.0], [0.0, 0.0, 0.0, 0.0, 77.0, 0.0], [0.0, 0.0, 0.0, 0.0, 0.0, 77.0]], 'homogeneous_poisson': 0.32, 'poisson_ratio': 0.32, 'universal_anisotropy': 0.3, 'elastic_tensor_original': [[402.57174602457843, 148.59602275624226, 148.59602275624226, 0.0, 0.0, 0.0], [149.2893251521396, 400.559882958851, 149.2893251521396, 0.0, 0.0, 0.0], [148.92425663322396, 148.92425663322396, 402.0784468910848, 0.0, 0.0, 0.0], [0.00015483364887908517, 0.00013652026123660182, 0.00013496694235404938, 77.27860495640178, 0.0, 0.0], [-7.189003735628726e-05, -8.76100569254676e-05, -8.283672465462727e-05, 0.0, 77.27860652641245, 0.0], [-0.00020511374556029993, -0.0001782736733374933, -0.00021964377171036084, 0.0, 0.0, 77.27858849321797]], 'compliance_tensor': [[3.1, -0.8, -0.8, 0.0, -0.0, -0.0], [-0.8, 3.1, -0.8, -0.0, 0.0, -0.0], [-0.8, -0.8, 3.1, -0.0, -0.0, 0.0], [0.0, -0.0, -0.0, 12.9, -0.0, -0.0], [-0.0, 0.0, -0.0, -0.0, 12.9, -0.0], [-0.0, -0.0, 0.0, -0.0, -0.0, 12.9]], 'warnings': [], 'nsites': 4}",0,94,233,0.3,0.32,248.16
97,mp-865916,TiVRe2,"{'Ti': 1.0, 'V': 1.0, 'Re': 2.0}",0.129954165,13.40356358,"{'G_Reuss': 114.0, 'G_VRH': 115.0, 'G_Voigt': 116.0, 'G_Voigt_Reuss_Hill': 115.0, 'K_Reuss': 255.0, 'K_VRH': 255.0, 'K_Voigt': 255.0, 'K_Voigt_Reuss_Hill': 255.0, 'elastic_anisotropy': 0.08, 'elastic_tensor': [[435.0, 165.0, 165.0, 0.0, 0.0, 0.0], [165.0, 435.0, 165.0, 0.0, 0.0, 0.0], [165.0, 165.0, 435.0, 0.0, 0.0, 0.0], [0.0, 0.0, 0.0, 104.0, 0.0, 0.0], [0.0, 0.0, 0.0, 0.0, 104.0, 0.0], [0.0, 0.0, 0.0, 0.0, 0.0, 104.0]], 'homogeneous_poisson': 0.3, 'poisson_ratio': 0.3, 'universal_anisotropy': 0.08, 'elastic_tensor_original': [[432.7018995404433, 166.2766383114288, 166.2766383114288, 0.0, 0.0, 0.0], [166.0979758803887, 434.14552239703403, 166.0979758803887, 0.0, 0.0, 0.0], [163.62857601007536, 163.62562364502156, 438.04902510775327, -0.00011495051989905324, -4.708143473824465e-05, -9.962910384864144e-05], [-0.0012114402541265352, -0.0014009728874630452, -0.0012588329504329358, 104.00374801095046, 0.0, 0.0], [-0.0006539500954501954, -0.00031792367147094407, -0.00025828741981032843, 0.0, 104.00241688751176, 0.0], [-2.249242240758683e-05, 8.596094969430899e-05, 0.00034455997441035994, 0.0, 0.0, 104.00227954738342]], 'compliance_tensor': [[2.9, -0.8, -0.8, -0.0, 0.0, 0.0], [-0.8, 2.9, -0.8, 0.0, -0.0, 0.0], [-0.8, -0.8, 2.9, 0.0, 0.0, -0.0], [-0.0, 0.0, 0.0, 9.6, 0.0, 0.0], [0.0, -0.0, 0.0, 0.0, 9.6, 0.0], [0.0, 0.0, -0.0, 0.0, 0.0, 9.6]], 'warnings': [], 'nsites': 4}",0,115,255,0.08,0.3,299
98,mp-866288,BeVCo2,"{'Be': 1.0, 'V': 1.0, 'Co': 2.0}",0.159134636,7.088483902,"{'G_Reuss': 36.0, 'G_VRH': 57.0, 'G_Voigt': 77.0, 'G_Voigt_Reuss_Hill': 57.0, 'K_Reuss': 193.0, 'K_VRH': 193.0, 'K_Voigt': 193.0, 'K_Voigt_Reuss_Hill': 193.0, 'elastic_anisotropy': 5.6, 'elastic_tensor': [[217.0, 181.0, 181.0, 0.0, 0.0, 0.0], [181.0, 217.0, 181.0, 0.0, 0.0, 0.0], [181.0, 181.0, 217.0, 0.0, 0.0, 0.0], [0.0, 0.0, 0.0, 116.0, 0.0, 0.0], [0.0, 0.0, 0.0, 0.0, 116.0, 0.0], [0.0, 0.0, 0.0, 0.0, 0.0, 116.0]], 'homogeneous_poisson': 0.37, 'poisson_ratio': 0.37, 'universal_anisotropy': 5.6, 'elastic_tensor_original': [[228.46124074302534, 145.96380265638044, 220.1838024702599, 0.7106576914585273, 0.560258770608439, -0.6617501261787693], [172.46680969440257, 232.96843878439645, 172.75224094524634, -0.31951869936941063, -0.42215332306886, 0.2509472813848374], [187.32806523165578, 187.3320112408262, 188.7873114768657, 0.16674600412278592, 0.009032622588676528, -0.15968161205933637], [-2.6237400064097497e-06, 1.2256115567939561e-06, 2.183170716518258e-06, 115.3381993706653, 0.0, 0.0], [-1.5683340322484944e-05, -1.9870005765577707e-05, -1.4980008080540843e-05, 0.0, 115.33685218780793, 0.0], [3.7553361222686457, -0.294967494976066, -6.0373500996208245, 0.009239980934290378, 0.03728246034458151, 118.36395253892434]], 'compliance_tensor': [[19.2, -8.8, -8.8, 0.0, 0.0, 0.0], [-8.8, 19.2, -8.8, -0.0, -0.0, -0.0], [-8.8, -8.8, 19.2, 0.0, -0.0, -0.0], [0.0, -0.0, 0.0, 8.6, 0.0, 0.0], [0.0, -0.0, -0.0, 0.0, 8.6, -0.0], [0.0, -0.0, -0.0, 0.0, -0.0, 8.6]], 'warnings': [], 'nsites': 4}",0,57,193,5.6,0.37,156.18
99,mp-867137,ScVRu2,"{'Sc': 1.0, 'V': 1.0, 'Ru': 2.0}",0.122109905,8.287841554,"{'G_Reuss': 85.0, 'G_VRH': 89.0, 'G_Voigt': 93.0, 'G_Voigt_Reuss_Hill': 89.0, 'K_Reuss': 195.0, 'K_VRH': 195.0, 'K_Voigt': 195.0, 'K_Voigt_Reuss_Hill': 195.0, 'elastic_anisotropy': 0.46, 'elastic_tensor': [[366.0, 110.0, 110.0, 0.0, 0.0, 0.0], [110.0, 366.0, 110.0, 0.0, 0.0, 0.0], [110.0, 110.0, 366.0, 0.0, 0.0, 0.0], [0.0, 0.0, 0.0, 69.0, 0.0, 0.0], [0.0, 0.0, 0.0, 0.0, 69.0, 0.0], [0.0, 0.0, 0.0, 0.0, 0.0, 69.0]], 'homogeneous_poisson': 0.3, 'poisson_ratio': 0.3, 'universal_anisotropy': 0.46, 'elastic_tensor_original': [[365.6479035711335, 110.05185565407363, 110.05185565407363, 0.0, 0.0, 0.0], [110.02786571901072, 365.6207775315675, 110.02786571901072, 0.0, 0.0, 0.0], [110.02889474882238, 110.02889474882238, 365.6195298517193, 0.0, 0.0, 0.0], [0.00045339668371468774, 0.0001785966733821027, 0.0001610100060536092, 69.41711431017086, 0.0, 0.0], [0.0005062966857040484, -0.000331806679143879, -0.0002496800093882248, 0.0, 69.41883020356872, 0.0], [-0.00029803001120656944, -0.0012664400476199596, 0.00039647001490820233, 0.0, 0.0, 69.41849203355599]], 'compliance_tensor': [[3.2, -0.7, -0.7, -0.0, -0.0, 0.0], [-0.7, 3.2, -0.7, 0.0, -0.0, 0.0], [-0.7, -0.7, 3.2, 0.0, 0.0, -0.0], [-0.0, 0.0, 0.0, 14.4, 0.0, -0.0], [-0.0, -0.0, 0.0, 0.0, 14.4, -0.0], [0.0, 0.0, -0.0, -0.0, -0.0, 14.4]], 'warnings': [], 'nsites': 4}",0,89,195,0.46,0.3,231.4
100,mp-867927,LiVIr2,"{'Li': 1.0, 'V': 1.0, 'Ir': 2.0}",0.168044147,14.06882499,"{'G_Reuss': 110.0, 'G_VRH': 110.0, 'G_Voigt': 110.0, 'G_Voigt_Reuss_Hill': 110.0, 'K_Reuss': 223.0, 'K_VRH': 223.0, 'K_Voigt': 223.0, 'K_Voigt_Reuss_Hill': 223.0, 'elastic_anisotropy': 0.03, 'elastic_tensor': [[356.0, 156.0, 156.0, 0.0, 0.0, 0.0], [156.0, 356.0, 156.0, 0.0, 0.0, 0.0], [156.0, 156.0, 356.0, 0.0, 0.0, 0.0], [0.0, 0.0, 0.0, 117.0, 0.0, 0.0], [0.0, 0.0, 0.0, 0.0, 117.0, 0.0], [0.0, 0.0, 0.0, 0.0, 0.0, 117.0]], 'homogeneous_poisson': 0.29, 'poisson_ratio': 0.29, 'universal_anisotropy': 0.03, 'elastic_tensor_original': [[357.2865063095318, 155.14300847044066, 155.14193115701, -0.00014147107062690501, 0.0001600772431810104, -1.5598709317989238e-05], [155.15574873200092, 357.29938318754995, 155.15546783485064, -2.5342897786646806e-05, 3.207961745145165e-05, -9.014372503857916e-05], [157.46478539637425, 157.46478539637425, 353.27336890064345, 0.0, 0.0, 0.0], [6.481104288468847e-06, -8.811694211967043e-07, 3.9399728452103785e-06, 117.37275361369181, 0.0, 0.0], [6.925588637159069e-06, 1.0966122981855891e-05, 1.0405020894566565e-05, 0.0, 117.3727545257612, 0.0], [2.089914558970043e-06, -3.495046007553346e-06, -3.1816843991982093e-06, 0.0, 0.0, 117.37275494162361]], 'compliance_tensor': [[3.8, -1.2, -1.2, 0.0, 0.0, 0.0], [-1.2, 3.8, -1.2, -0.0, -0.0, 0.0], [-1.2, -1.2, 3.8, -0.0, 0.0, -0.0], [0.0, -0.0, -0.0, 8.5, 0.0, 0.0], [0.0, -0.0, 0.0, 0.0, 8.5, -0.0], [0.0, 0.0, -0.0, 0.0, -0.0, 8.5]], 'warnings': [], 'nsites': 4}",0,110,223,0.03,0.29,283.8
101,mp-1025167,Hf(VGa2)2,"{'Hf': 1.0, 'V': 2.0, 'Ga': 4.0}",0.127927994,8.568621628,"{'G_Reuss': 88.0, 'G_VRH': 91.0, 'G_Voigt': 94.0, 'G_Voigt_Reuss_Hill': 91.0, 'K_Reuss': 130.0, 'K_VRH': 131.0, 'K_Voigt': 131.0, 'K_Voigt_Reuss_Hill': 131.0, 'elastic_anisotropy': 0.37, 'elastic_tensor': [[231.0, 59.0, 59.0, 0.0, 0.0, 0.0], [59.0, 240.0, 117.0, 0.0, 0.0, 0.0], [59.0, 117.0, 240.0, 0.0, 0.0, 0.0], [0.0, 0.0, 0.0, 139.0, 0.0, 0.0], [0.0, 0.0, 0.0, 0.0, 87.0, 0.0], [0.0, 0.0, 0.0, 0.0, 0.0, 87.0]], 'homogeneous_poisson': 0.22, 'poisson_ratio': 0.22, 'universal_anisotropy': 0.37, 'elastic_tensor_original': [[230.83905559135658, 70.04732570643068, 70.04732570643068, 0.0, 2.159991825527428e-05, 0.0], [48.819041386124724, 240.43986000275711, 117.01201893643544, 0.0, 1.820019780749785e-05, 0.0], [48.819041386127765, 117.01201893643544, 240.43986000275711, 0.0, 3.75942564001571e-05, 9.535369643372648e-08], [0.0, 1.3860309703359543, -1.386030970335959, 138.5963241217686, -1.3599483952519152e-07, 2.158075720194064e-05], [2.7082358758767583e-05, 0.0, 0.0, 0.0, 86.60471793285599, 0.0], [0.0, 0.0, 0.0, 0.0, 0.0, 86.60471793285598]], 'compliance_tensor': [[4.7, -0.8, -0.8, -0.0, -0.0, -0.0], [-0.8, 5.6, -2.5, 0.0, 0.0, -0.0], [-0.8, -2.5, 5.6, 0.0, -0.0, 0.0], [-0.0, 0.0, 0.0, 7.2, -0.0, -0.0], [-0.0, 0.0, -0.0, -0.0, 11.5, 0.0], [-0.0, -0.0, 0.0, -0.0, 0.0, 11.5]], 'warnings': [], 'nsites': 7}",0,91,131,0.37,0.22,222.04
102,mp-1029293,CsVN2,"{'Cs': 1.0, 'V': 1.0, 'N': 2.0}",0.389625577,4.742624018,"{'G_Reuss': 41.0, 'G_VRH': 43.0, 'G_Voigt': 46.0, 'G_Voigt_Reuss_Hill': 43.0, 'K_Reuss': 104.0, 'K_VRH': 104.0, 'K_Voigt': 104.0, 'K_Voigt_Reuss_Hill': 104.0, 'elastic_anisotropy': 0.57, 'elastic_tensor': [[143.0, 85.0, 85.0, 0.0, 0.0, 0.0], [85.0, 143.0, 85.0, 0.0, 0.0, 0.0], [85.0, 85.0, 143.0, 0.0, 0.0, 0.0], [0.0, 0.0, 0.0, 57.0, 0.0, 0.0], [0.0, 0.0, 0.0, 0.0, 57.0, 0.0], [0.0, 0.0, 0.0, 0.0, 0.0, 57.0]], 'homogeneous_poisson': 0.32, 'poisson_ratio': 0.32, 'universal_anisotropy': 0.57, 'elastic_tensor_original': [[142.94072843841062, 84.93731238984468, 84.93731238984468, 0.0, 0.0, 0.0], [84.93262287256677, 142.93639160295828, 84.93262287256677, 0.0, 0.0, 0.0], [84.93492789733007, 84.93492789733007, 142.9384261278598, 0.0, 0.0, 0.0], [-0.0007005598560295049, -0.0006620498639436233, -0.0006880265252723372, 56.97412945139026, 0.0, 0.0], [0.0079087817080199, 0.010607134486821232, 0.011225244359794745, 0.0, 56.9798927035392, 0.0], [0.00036226659221864265, 0.000357216593255658, 0.00035286326081744015, 0.0, 0.0, 56.97404786140703]], 'compliance_tensor': [[12.6, -4.7, -4.7, 0.0, 0.0, 0.0], [-4.7, 12.6, -4.7, 0.0, 0.0, -0.0], [-4.7, -4.7, 12.6, 0.0, 0.0, 0.0], [0.0, 0.0, 0.0, 17.6, 0.0, 0.0], [0.0, 0.0, 0.0, 0.0, 17.6, 0.0], [0.0, -0.0, 0.0, 0.0, 0.0, 17.6]], 'warnings': [], 'nsites': 8}",0,43,104,0.57,0.32,113.52
103,mp-1029711,NaVN2,"{'Na': 1.0, 'V': 1.0, 'N': 2.0}",0.176068977,2.811362153,"{'G_Reuss': 18.0, 'G_VRH': 16.0, 'G_Voigt': 15.0, 'G_Voigt_Reuss_Hill': 16.0, 'K_Reuss': 44.0, 'K_VRH': 45.0, 'K_Voigt': 46.0, 'K_Voigt_Reuss_Hill': 45.0, 'elastic_anisotropy': -1.0, 'elastic_tensor': [[68.0, 35.0, 25.0, 0.0, 0.0, 0.0], [35.0, 70.0, 13.0, 0.0, 0.0, 0.0], [25.0, 13.0, 129.0, 0.0, 0.0, 0.0], [0.0, 0.0, 0.0, -15.0, 0.0, 0.0], [0.0, 0.0, 0.0, 0.0, 18.0, 0.0], [0.0, 0.0, 0.0, 0.0, 0.0, 5.0]], 'homogeneous_poisson': 0.34, 'poisson_ratio': 0.34, 'universal_anisotropy': -1.0, 'elastic_tensor_original': [[128.73142412857737, 12.574433058817876, 24.94746919989899, 0.0, 0.0, 0.0], [12.865571025618006, 69.63224047577648, 35.427391660066085, 0.0, 0.0, 0.0], [24.693007837088736, 35.51487824838371, 67.51763674530171, 0.0, 0.0, 0.0], [-0.019864463005354212, -0.027511286212432304, -0.01873419302401547, 4.9511391949191985, 0.0, 0.0], [-0.000897622486696471, -0.0011307797992822798, -0.0005418481677564489, 0.0, 18.40386743804791, 0.0], [0.12991596836763158, 0.084709831348679, 0.038709442098056705, 0.0, 0.0, -14.840014145960124]], 'compliance_tensor': [[21.4, -10.3, -3.1, 0.0, 0.0, 0.0], [-10.3, 19.6, 0.1, -0.0, 0.0, 0.0], [-3.1, 0.1, 8.4, -0.0, 0.0, 0.0], [0.0, -0.0, -0.0, -67.4, -0.0, -0.0], [0.0, 0.0, 0.0, 0.0, 54.3, 0.0], [0.0, 0.0, 0.0, 0.0, 0.0, 202.0]], 'warnings': ['Elastic tensor has a negative eigenvalue'], 'nsites': 16}",0,16,45,-1,0.34,42.88