,mp_id,Formula,Composition,IPF,Density,Elastic_Tensor,E_above_Hull,G_VRH,K_VRH,Elastic_Anisotropy,poisson_ratio,Y_Modulus
156,mp-4955,AlVCo2,"{'Al': 1.0, 'V': 1.0, 'Co': 2.0}",0.148000961,6.818543267,"{'G_Reuss': 93.0, 'G_VRH': 98.0, 'G_Voigt': 103.0, 'G_Voigt_Reuss_Hill': 98.0, 'K_Reuss': 192.0, 'K_VRH': 192.0, 'K_Voigt': 192.0, 'K_Voigt_Reuss_Hill': 192.0, 'elastic_anisotropy': 0.52, 'elastic_tensor': [[281.0, 148.0, 148.0, 0.0, 0.0, 0.0], [148.0, 281.0, 148.0, 0.0, 0.0, 0.0], [148.0, 148.0, 281.0, 0.0, 0.0, 0.0], [0.0, 0.0, 0.0, 127.0, 0.0, 0.0], [0.0, 0.0, 0.0, 0.0, 127.0, 0.0], [0.0, 0.0, 0.0, 0.0, 0.0, 127.0]], 'homogeneous_poisson': 0.28, 'poisson_ratio': 0.28, 'universal_anisotropy': 0.52, 'elastic_tensor_original': [[280.9575028427863, 147.49082668195814, 147.49082668195814, 0.0, 0.0, 0.0], [147.91019261037724, 281.3781429171393, 147.9136321988157, -0.0004952742417840641, -0.000266210403704445, -0.0006812863673940943], [147.7902910582633, 147.78974383468915, 281.2576752244445, -0.0006289779382489313, -0.000730043728504231, -0.0010492807548890125], [-0.01720302022474859, -0.0167165069793279, -0.01643427036366237, 127.29087860855132, 0.0, 0.0], [0.00010216998153869826, 8.658998435458671e-05, -0.00011031331339972888, 0.0, 127.29171604173332, 0.0], [-0.0002445866224672543, 0.00012421331088800056, 9.54733160812712e-05, 0.0, 0.0, 127.29192802502838]], 'compliance_tensor': [[5.6, -1.9, -1.9, -0.0, 0.0, 0.0], [-1.9, 5.6, -1.9, 0.0, -0.0, 0.0], [-1.9, -1.9, 5.6, 0.0, 0.0, -0.0], [-0.0, 0.0, 0.0, 7.9, -0.0, -0.0], [0.0, -0.0, 0.0, -0.0, 7.9, -0.0], [0.0, 0.0, -0.0, -0.0, -0.0, 7.9]], 'warnings': [], 'nsites': 4}",0,98,192,0.52,0.28,250.88
157,mp-556424,RbVF3,"{'Rb': 1.0, 'V': 1.0, 'F': 3.0}",0.326852176,4.111199856,"{'G_Reuss': 34.0, 'G_VRH': 35.0, 'G_Voigt': 37.0, 'G_Voigt_Reuss_Hill': 35.0, 'K_Reuss': 65.0, 'K_VRH': 65.0, 'K_Voigt': 65.0, 'K_Voigt_Reuss_Hill': 65.0, 'elastic_anisotropy': 0.53, 'elastic_tensor': [[134.0, 30.0, 30.0, 0.0, 0.0, 0.0], [30.0, 134.0, 30.0, 0.0, 0.0, 0.0], [30.0, 30.0, 134.0, 0.0, 0.0, 0.0], [0.0, 0.0, 0.0, 27.0, 0.0, 0.0], [0.0, 0.0, 0.0, 0.0, 27.0, 0.0], [0.0, 0.0, 0.0, 0.0, 0.0, 27.0]], 'homogeneous_poisson': 0.27, 'poisson_ratio': 0.27, 'universal_anisotropy': 0.53, 'elastic_tensor_original': [[134.20684211909222, 30.09963464325991, 30.09963464325991, 0.0, 0.0, 0.0], [30.099881250624207, 134.2069269175455, 30.099881250624207, 0.0, 0.0, 0.0], [30.09894548328647, 30.098933074370297, 134.20637426173448, -0.00042054654832114066, -0.000469104911632984, -0.0005525758204648462], [3.249663479357957e-05, 2.2926691652570958e-05, 1.9456689833338443e-05, 27.100039698098755, 0.0, 0.0], [1.399673337525494e-05, 2.9453378968584403e-05, 5.0833502051328725e-05, 0.0, 27.100077958222172, 0.0], [-7.465334435720327e-05, -4.3466726695809844e-05, 9.396604298383546e-06, 0.0, 0.0, 27.099967188091366]], 'compliance_tensor': [[8.1, -1.5, -1.5, -0.0, 0.0, 0.0], [-1.5, 8.1, -1.5, -0.0, -0.0, 0.0], [-1.5, -1.5, 8.1, 0.0, -0.0, -0.0], [-0.0, -0.0, 0.0, 36.9, -0.0, -0.0], [0.0, -0.0, -0.0, -0.0, 36.9, 0.0], [0.0, 0.0, -0.0, -0.0, 0.0, 36.9]], 'warnings': [], 'nsites': 5}",0,35,65,0.53,0.27,88.9
158,mp-557938,HfVF6,"{'Hf': 1.0, 'V': 1.0, 'F': 6.0}",0.095435584,4.077358133,"{'G_Reuss': 21.0, 'G_VRH': 33.0, 'G_Voigt': 46.0, 'G_Voigt_Reuss_Hill': 33.0, 'K_Reuss': 75.0, 'K_VRH': 75.0, 'K_Voigt': 75.0, 'K_Voigt_Reuss_Hill': 75.0, 'elastic_anisotropy': 6.08, 'elastic_tensor': [[200.0, 13.0, 13.0, 0.0, 0.0, 0.0], [13.0, 200.0, 13.0, 0.0, 0.0, 0.0], [13.0, 13.0, 200.0, 0.0, 0.0, 0.0], [0.0, 0.0, 0.0, 14.0, 0.0, 0.0], [0.0, 0.0, 0.0, 0.0, 14.0, 0.0], [0.0, 0.0, 0.0, 0.0, 0.0, 14.0]], 'homogeneous_poisson': 0.31, 'poisson_ratio': 0.31, 'universal_anisotropy': 6.08, 'elastic_tensor_original': [[200.1404393415032, 13.122270101168777, 13.122270101168777, 0.0, 0.0, 0.0], [13.122570829194782, 200.1409166960511, 13.122570829194782, 0.0, 0.0, 0.0], [13.122521612008274, 13.122521612008274, 200.14131092404384, 0.0, 0.0, 0.0], [-7.27500186123415e-05, -5.219334668717656e-05, -1.9300004937748315e-05, 13.508903439441829, 0.0, 0.0], [0.012044889748222484, 0.03909062000091707, 0.0580986848639272, 0.0, 13.500984604082547, 0.0], [-0.012118253100326588, -0.058163744880572306, -0.03919965002881152, 0.0, 0.0, 13.500967904078271]], 'compliance_tensor': [[5.0, -0.3, -0.3, 0.0, -0.0, -0.0], [-0.3, 5.0, -0.3, -0.0, 0.0, -0.0], [-0.3, -0.3, 5.0, -0.0, -0.0, 0.0], [0.0, -0.0, -0.0, 74.1, -0.0, -0.0], [-0.0, 0.0, -0.0, -0.0, 74.1, -0.0], [-0.0, -0.0, 0.0, -0.0, -0.0, 74.1]], 'warnings': [], 'nsites': 8}",0,33,75,6.08,0.31,86.46
159,mp-865486,VZnRu2,"{'V': 1.0, 'Zn': 1.0, 'Ru': 2.0}",0.132607584,9.682977916,"{'G_Reuss': 76.0, 'G_VRH': 81.0, 'G_Voigt': 87.0, 'G_Voigt_Reuss_Hill': 81.0, 'K_Reuss': 228.0, 'K_VRH': 228.0, 'K_Voigt': 228.0, 'K_Voigt_Reuss_Hill': 228.0, 'elastic_anisotropy': 0.71, 'elastic_tensor': [[297.0, 193.0, 193.0, 0.0, 0.0, 0.0], [193.0, 297.0, 193.0, 0.0, 0.0, 0.0], [193.0, 193.0, 297.0, 0.0, 0.0, 0.0], [0.0, 0.0, 0.0, 110.0, 0.0, 0.0], [0.0, 0.0, 0.0, 0.0, 110.0, 0.0], [0.0, 0.0, 0.0, 0.0, 0.0, 110.0]], 'homogeneous_poisson': 0.34, 'poisson_ratio': 0.34, 'universal_anisotropy': 0.71, 'elastic_tensor_original': [[296.58443093960295, 192.9432503575586, 192.9432503575586, 0.0, 0.0, 0.0], [193.0124865357229, 296.65129859641985, 193.0124865357229, 0.0, 0.0, 0.0], [192.96343248501765, 192.96343248501765, 296.605058264953, 0.0, 0.0, 0.0], [0.0012649359132369008, 0.001267312578485204, 0.0012837159020499054, 110.02685852167066, 0.0, 0.0], [-0.000990116076930242, -0.0009617694271468558, -0.0009871894120039577, 0.0, 110.02640600860687, 0.0], [-0.0005985229768386537, -0.0005765563232540813, -0.0005675296619635356, 0.0, 0.0, 110.02699216159108]], 'compliance_tensor': [[6.9, -2.7, -2.7, -0.0, 0.0, -0.0], [-2.7, 6.9, -2.7, -0.0, -0.0, 0.0], [-2.7, -2.7, 6.9, 0.0, -0.0, -0.0], [-0.0, -0.0, 0.0, 9.1, -0.0, -0.0], [0.0, -0.0, -0.0, -0.0, 9.1, -0.0], [-0.0, 0.0, -0.0, -0.0, -0.0, 9.1]], 'warnings': [], 'nsites': 4}",0,81,228,0.71,0.34,217.08
160,mp-865497,V2ReOs,"{'V': 2.0, 'Re': 1.0, 'Os': 1.0}",0.120844807,14.26320827,"{'G_Reuss': 144.0, 'G_VRH': 144.0, 'G_Voigt': 144.0, 'G_Voigt_Reuss_Hill': 144.0, 'K_Reuss': 291.0, 'K_VRH': 291.0, 'K_Voigt': 291.0, 'K_Voigt_Reuss_Hill': 291.0, 'elastic_anisotropy': 0.0, 'elastic_tensor': [[490.0, 191.0, 191.0, 0.0, 0.0, 0.0], [191.0, 490.0, 191.0, 0.0, 0.0, 0.0], [191.0, 191.0, 490.0, 0.0, 0.0, 0.0], [0.0, 0.0, 0.0, 141.0, 0.0, 0.0], [0.0, 0.0, 0.0, 0.0, 141.0, 0.0], [0.0, 0.0, 0.0, 0.0, 0.0, 141.0]], 'homogeneous_poisson': 0.29, 'poisson_ratio': 0.29, 'universal_anisotropy': 0.0, 'elastic_tensor_original': [[489.7622449676972, 191.27056992942704, 191.27056992942704, 0.0, 0.0, 0.0], [191.2903500710403, 489.7741199640813, 191.2903500710403, 0.0, 0.0, 0.0], [191.31521683108068, 191.31521683108068, 489.8075518991233, 0.0, 0.0, 0.0], [0.00028871973774869964, 0.00026051976336193396, 0.0002644330931390466, 141.09694879642805, 0.0, 0.0], [0.0004905828877195612, 0.0004679895749110533, 0.0005409928419296272, 0.0, 141.09724126616248, 0.0], [-0.00011800655947438633, -0.00017004651220697706, -9.038991789434558e-05, 0.0, 0.0, 141.09771244573443]], 'compliance_tensor': [[2.6, -0.7, -0.7, -0.0, -0.0, 0.0], [-0.7, 2.6, -0.7, 0.0, -0.0, -0.0], [-0.7, -0.7, 2.6, -0.0, 0.0, -0.0], [-0.0, 0.0, -0.0, 7.1, 0.0, -0.0], [-0.0, -0.0, 0.0, 0.0, 7.1, -0.0], [0.0, -0.0, -0.0, -0.0, -0.0, 7.1]], 'warnings': [], 'nsites': 4}",0,144,291,0,0.29,371.52
161,mp-865507,VSiRu2,"{'V': 1.0, 'Si': 1.0, 'Ru': 2.0}",0.095844364,8.864955266,"{'G_Reuss': 113.0, 'G_VRH': 114.0, 'G_Voigt': 114.0, 'G_Voigt_Reuss_Hill': 114.0, 'K_Reuss': 253.0, 'K_VRH': 253.0, 'K_Voigt': 253.0, 'K_Voigt_Reuss_Hill': 253.0, 'elastic_anisotropy': 0.03, 'elastic_tensor': [[419.0, 170.0, 170.0, 0.0, 0.0, 0.0], [170.0, 419.0, 170.0, 0.0, 0.0, 0.0], [170.0, 170.0, 419.0, 0.0, 0.0, 0.0], [0.0, 0.0, 0.0, 107.0, 0.0, 0.0], [0.0, 0.0, 0.0, 0.0, 107.0, 0.0], [0.0, 0.0, 0.0, 0.0, 0.0, 107.0]], 'homogeneous_poisson': 0.3, 'poisson_ratio': 0.3, 'universal_anisotropy': 0.03, 'elastic_tensor_original': [[418.19844867012716, 168.92465470573612, 168.92465470573612, 0.0, 0.0, 0.0], [171.23444475277196, 419.48350583164853, 171.23444475277196, 0.0, 0.0, 0.0], [171.2406369091231, 171.2406369091231, 419.48816869857916, 0.0, 0.0, 0.0], [-0.038069920053464615, 0.030427484044317006, -0.10467167854725709, 107.26588862994252, 0.0, 0.0], [-0.030483791040989677, 0.038034049628181216, 0.10474386794211066, 0.0, 107.26587393331833, 0.0], [-0.030553594290718532, 0.10465983466847875, 0.03795374634950686, 0.0, 0.0, 107.2658691666497]], 'compliance_tensor': [[3.1, -0.9, -0.9, 0.0, -0.0, -0.0], [-0.9, 3.1, -0.9, -0.0, 0.0, -0.0], [-0.9, -0.9, 3.1, -0.0, -0.0, 0.0], [0.0, -0.0, -0.0, 9.3, 0.0, 0.0], [-0.0, 0.0, -0.0, 0.0, 9.3, 0.0], [-0.0, -0.0, 0.0, 0.0, 0.0, 9.3]], 'warnings': [], 'nsites': 4}",0,114,253,0.03,0.3,296.4
162,mp-867829,LiVRh2,"{'Li': 1.0, 'V': 1.0, 'Rh': 2.0}",0.162972305,8.408842757,"{'G_Reuss': 82.0, 'G_VRH': 82.0, 'G_Voigt': 82.0, 'G_Voigt_Reuss_Hill': 82.0, 'K_Reuss': 179.0, 'K_VRH': 179.0, 'K_Voigt': 179.0, 'K_Voigt_Reuss_Hill': 179.0, 'elastic_anisotropy': 0.01, 'elastic_tensor': [[295.0, 121.0, 121.0, 0.0, 0.0, 0.0], [121.0, 295.0, 121.0, 0.0, 0.0, 0.0], [121.0, 121.0, 295.0, 0.0, 0.0, 0.0], [0.0, 0.0, 0.0, 79.0, 0.0, 0.0], [0.0, 0.0, 0.0, 0.0, 79.0, 0.0], [0.0, 0.0, 0.0, 0.0, 0.0, 79.0]], 'homogeneous_poisson': 0.3, 'poisson_ratio': 0.3, 'universal_anisotropy': 0.01, 'elastic_tensor_original': [[295.5733683098849, 120.56672247727506, 120.56535564726653, -0.00019049916442525586, 0.0008358302955204674, 0.0002546572242002714], [121.64884486264894, 292.930346163374, 121.65172574086017, 0.00017012749969120514, -0.0003695011219586268, -0.00023525440029541117], [120.26832027617158, 120.26806434217006, 295.3043004673206, -0.00013112901955882362, -9.775326271690793e-05, -3.042320931495603e-05], [-1.24333200002757e-05, 6.957659206238489e-05, 6.485659712317311e-05, 78.64006654331725, 0.0, 0.0], [-5.093327871798247e-05, -7.558991894593248e-05, -2.0679977825144937e-05, 0.0, 78.6402142931588, 0.0], [-0.00018117647239515477, -0.00016560315576178824, -0.00010107655828436732, 0.0, 0.0, 78.64011776659567]], 'compliance_tensor': [[4.5, -1.3, -1.3, 0.0, -0.0, 0.0], [-1.3, 4.5, -1.3, 0.0, 0.0, -0.0], [-1.3, -1.3, 4.5, -0.0, 0.0, 0.0], [0.0, 0.0, -0.0, 12.7, -0.0, -0.0], [-0.0, 0.0, 0.0, -0.0, 12.7, -0.0], [0.0, -0.0, 0.0, -0.0, -0.0, 12.7]], 'warnings': [], 'nsites': 4}",0,82,179,0.01,0.3,213.2
163,mp-977382,Ta2VRu,"{'Ta': 2.0, 'V': 1.0, 'Ru': 1.0}",0.123114109,13.47347638,"{'G_Reuss': 83.0, 'G_VRH': 84.0, 'G_Voigt': 86.0, 'G_Voigt_Reuss_Hill': 84.0, 'K_Reuss': 232.0, 'K_VRH': 232.0, 'K_Voigt': 232.0, 'K_Voigt_Reuss_Hill': 232.0, 'elastic_anisotropy': 0.23, 'elastic_tensor': [[378.0, 159.0, 159.0, 0.0, 0.0, 0.0], [159.0, 378.0, 159.0, 0.0, 0.0, 0.0], [159.0, 159.0, 378.0, 0.0, 0.0, 0.0], [0.0, 0.0, 0.0, 71.0, 0.0, 0.0], [0.0, 0.0, 0.0, 0.0, 71.0, 0.0], [0.0, 0.0, 0.0, 0.0, 0.0, 71.0]], 'homogeneous_poisson': 0.34, 'poisson_ratio': 0.34, 'universal_anisotropy': 0.23, 'elastic_tensor_original': [[377.7002138028832, 159.44396945495666, 159.44396945495666, 0.0, 0.0, 0.0], [159.75171019837262, 376.300264351647, 159.75171019837262, 0.0, 0.0, 0.0], [158.8379055219504, 158.8379055219504, 379.3379236785402, 0.0, 0.0, 0.0], [0.002050137523180853, 0.0020507815293086865, 0.002056789951346476, 71.05298399127933, 0.0, 0.0], [-0.001199459364152657, -0.001175529376838161, -0.001209509358824279, 0.0, 71.05292147746223, 0.0], [-0.0007049055279300056, -0.0007103372836069775, -0.0006965915256876002, 0.0, 0.0, 71.05293516473279]], 'compliance_tensor': [[3.5, -1.0, -1.0, -0.0, -0.0, 0.0], [-1.0, 3.5, -1.0, 0.0, 0.0, 0.0], [-1.0, -1.0, 3.5, 0.0, -0.0, -0.0], [-0.0, 0.0, 0.0, 14.1, -0.0, -0.0], [-0.0, 0.0, -0.0, -0.0, 14.1, 0.0], [0.0, 0.0, -0.0, -0.0, 0.0, 14.1]], 'warnings': [], 'nsites': 4}",0,84,232,0.23,0.34,225.12
164,mp-1018726,HfVGe,"{'Hf': 1.0, 'V': 1.0, 'Ge': 1.0}",0.129667916,10.07849083,"{'G_Reuss': 65.0, 'G_VRH': 78.0, 'G_Voigt': 92.0, 'G_Voigt_Reuss_Hill': 78.0, 'K_Reuss': 146.0, 'K_VRH': 146.0, 'K_Voigt': 147.0, 'K_Voigt_Reuss_Hill': 146.0, 'elastic_anisotropy': 2.05, 'elastic_tensor': [[193.0, 141.0, 91.0, 0.0, 0.0, 0.0], [141.0, 193.0, 91.0, 0.0, 0.0, 0.0], [91.0, 91.0, 288.0, 0.0, 0.0, 0.0], [0.0, 0.0, 0.0, 97.0, 0.0, 0.0], [0.0, 0.0, 0.0, 0.0, 97.0, 0.0], [0.0, 0.0, 0.0, 0.0, 0.0, 147.0]], 'homogeneous_poisson': 0.27, 'poisson_ratio': 0.27, 'universal_anisotropy': 2.05, 'elastic_tensor_original': [[193.03235071151437, 140.86784522642026, 87.73106588983721, 0.0, 0.0, 0.0], [140.86784522642026, 193.03235071151437, 87.73106588983721, 0.0, 0.0, 0.0], [93.86538839920759, 93.86538839920759, 287.5204545403432, 0.0, 0.0, 0.0], [0.0, 0.0, 0.0, 97.42590217238113, 0.0, 0.0], [0.0, 0.0, 0.0, 0.0, 97.42590217238113, 0.0], [1.4690880966581223, -1.4690880966581228, 0.0, 0.0, 0.0, 146.9028976060648]], 'compliance_tensor': [[11.4, -7.8, -1.1, 0.0, 0.0, 0.0], [-7.8, 11.4, -1.1, 0.0, 0.0, 0.0], [-1.1, -1.1, 4.2, 0.0, 0.0, 0.0], [0.0, 0.0, 0.0, 10.3, 0.0, 0.0], [0.0, 0.0, 0.0, 0.0, 10.3, 0.0], [0.0, 0.0, 0.0, 0.0, 0.0, 6.8]], 'warnings': [], 'nsites': 6}",0,78,146,2.05,0.27,198.12
165,mp-1025365,Sc(VGa2)2,"{'Sc': 1.0, 'V': 2.0, 'Ga': 4.0}",0.128840487,6.416055055,"{'G_Reuss': 73.0, 'G_VRH': 76.0, 'G_Voigt': 80.0, 'G_Voigt_Reuss_Hill': 76.0, 'K_Reuss': 118.0, 'K_VRH': 118.0, 'K_Voigt': 119.0, 'K_Voigt_Reuss_Hill': 118.0, 'elastic_anisotropy': 0.5, 'elastic_tensor': [[223.0, 56.0, 56.0, 0.0, 0.0, 0.0], [56.0, 200.0, 111.0, 0.0, 0.0, 0.0], [56.0, 111.0, 200.0, 0.0, 0.0, 0.0], [0.0, 0.0, 0.0, 115.0, 0.0, 0.0], [0.0, 0.0, 0.0, 0.0, 76.0, 0.0], [0.0, 0.0, 0.0, 0.0, 0.0, 76.0]], 'homogeneous_poisson': 0.23, 'poisson_ratio': 0.23, 'universal_anisotropy': 0.5, 'elastic_tensor_original': [[222.91620718607447, 52.04956716015479, 52.04956716015479, 0.0, 0.0, 0.0], [59.33556288239091, 200.15559598516379, 110.68633757870744, 0.0, 0.0, 0.0], [59.33556288239091, 110.68633757870744, 200.15559598516379, 0.0, -3.0781669771585803e-07, -1.7022308982908708e-07], [0.0, 1.1458074409913392, -1.1458074409913488, 114.57550087652437, -8.661239146153556e-08, -8.837451109657991e-08], [-2.331948465140875e-07, 0.0, 0.0, 0.0, 75.8166467864797, 0.0], [0.0, 0.0, 0.0, 0.0, 0.0, 75.81664678647971]], 'compliance_tensor': [[4.9, -0.9, -0.9, -0.0, 0.0, 0.0], [-0.9, 7.4, -3.8, 0.0, -0.0, 0.0], [-0.9, -3.8, 7.4, 0.0, 0.0, -0.0], [-0.0, 0.0, 0.0, 8.7, 0.0, 0.0], [0.0, -0.0, 0.0, 0.0, 13.2, 0.0], [0.0, 0.0, -0.0, 0.0, 0.0, 13.2]], 'warnings': [], 'nsites': 7}",0,76,118,0.5,0.23,186.96
166,mp-1025497,AlV2C,"{'Al': 1.0, 'V': 2.0, 'C': 1.0}",0.11120008,4.872389204,"{'G_Reuss': 130.0, 'G_VRH': 131.0, 'G_Voigt': 132.0, 'G_Voigt_Reuss_Hill': 131.0, 'K_Reuss': 171.0, 'K_VRH': 171.0, 'K_Voigt': 171.0, 'K_Voigt_Reuss_Hill': 171.0, 'elastic_anisotropy': 0.07, 'elastic_tensor': [[334.0, 73.0, 101.0, 0.0, 0.0, 0.0], [73.0, 334.0, 101.0, 0.0, 0.0, 0.0], [101.0, 101.0, 318.0, 0.0, 0.0, 0.0], [0.0, 0.0, 0.0, 146.0, 0.0, 0.0], [0.0, 0.0, 0.0, 0.0, 146.0, 0.0], [0.0, 0.0, 0.0, 0.0, 0.0, 131.0]], 'homogeneous_poisson': 0.19, 'poisson_ratio': 0.19, 'universal_anisotropy': 0.07, 'elastic_tensor_original': [[338.94341894820263, 67.85945110395522, 101.43803732830268, 0.0, 0.0, 0.0], [70.027291464767, 338.50934860520454, 101.47182893918226, 0.0, 0.0, 0.0], [100.33997217306194, 100.3399769929773, 317.9451089294112, 0.0, 0.0, 0.0], [-0.012286296514298986, -0.0047077922156810404, -0.0052812599643285735, 145.40014761798665, 0.0, 0.0], [-1.008338579870356e-05, -3.9536872389955566e-05, -2.8706816037812785e-05, 0.0, 145.79809390722005, 0.0], [-5.417017162806913e-05, -4.8033531248168576e-05, -4.1776832592301636e-05, 0.0, 0.0, 126.23608304766003]], 'compliance_tensor': [[3.4, -0.5, -0.9, -0.0, -0.0, -0.0], [-0.5, 3.4, -0.9, 0.0, -0.0, -0.0], [-0.9, -0.9, 3.7, -0.0, 0.0, 0.0], [-0.0, -0.0, -0.0, 6.9, -0.0, 0.0], [-0.0, -0.0, 0.0, -0.0, 6.9, 0.0], [-0.0, -0.0, 0.0, 0.0, 0.0, 7.7]], 'warnings': [], 'nsites': 8}",0,131,171,0.07,0.19,311.78
167,mp-1025549,Tl3VSe4,"{'Tl': 3.0, 'V': 1.0, 'Se': 4.0}",0.198075426,6.559809699,"{'G_Reuss': 39.0, 'G_VRH': 42.0, 'G_Voigt': 45.0, 'G_Voigt_Reuss_Hill': 42.0, 'K_Reuss': 149.0, 'K_VRH': 149.0, 'K_Voigt': 149.0, 'K_Voigt_Reuss_Hill': 149.0, 'elastic_anisotropy': 0.75, 'elastic_tensor': [[184.0, 131.0, 131.0, 0.0, 0.0, 0.0], [131.0, 184.0, 131.0, 0.0, 0.0, 0.0], [131.0, 131.0, 184.0, 0.0, 0.0, 0.0], [0.0, 0.0, 0.0, 58.0, 0.0, 0.0], [0.0, 0.0, 0.0, 0.0, 58.0, 0.0], [0.0, 0.0, 0.0, 0.0, 0.0, 58.0]], 'homogeneous_poisson': 0.37, 'poisson_ratio': 0.37, 'universal_anisotropy': 0.75, 'elastic_tensor_original': [[184.43312932168715, 131.23858625052355, 131.23858625052355, 0.0, 0.0, 0.0], [131.23858625052364, 184.43312932168715, 131.23858625052364, 0.0, 0.0, 0.0], [131.23858625052367, 131.23858625052367, 184.43312932168718, 0.0, 0.0, 0.0], [0.0, 0.0, 0.0, 57.647090234214375, 0.0, 0.0], [0.0, 0.0, 0.0, 0.0, 57.647090234214375, 0.0], [0.0, 0.0, 0.0, 0.0, 0.0, 57.647090234214375]], 'compliance_tensor': [[13.3, -5.5, -5.5, 0.0, 0.0, 0.0], [-5.5, 13.3, -5.5, -0.0, -0.0, 0.0], [-5.5, -5.5, 13.3, -0.0, 0.0, -0.0], [0.0, -0.0, -0.0, 17.3, 0.0, 0.0], [0.0, -0.0, 0.0, 0.0, 17.3, -0.0], [0.0, 0.0, -0.0, 0.0, -0.0, 17.3]], 'warnings': [], 'nsites': 8}",0,42,149,0.75,0.37,115.08
168,mp-11193,VAuS2,"{'V': 1.0, 'Au': 1.0, 'S': 2.0}",0.187205299,7.572687804,"{'G_Reuss': 46.0, 'G_VRH': 52.0, 'G_Voigt': 58.0, 'G_Voigt_Reuss_Hill': 52.0, 'K_Reuss': 96.0, 'K_VRH': 106.0, 'K_Voigt': 115.0, 'K_Voigt_Reuss_Hill': 106.0, 'elastic_anisotropy': 1.46, 'elastic_tensor': [[155.0, 45.0, 66.0, 0.0, 0.0, 0.0], [45.0, 155.0, 66.0, 0.0, 0.0, 0.0], [66.0, 66.0, 370.0, 0.0, 0.0, 0.0], [0.0, 0.0, 0.0, 32.0, 0.0, 0.0], [0.0, 0.0, 0.0, 0.0, 32.0, 0.0], [0.0, 0.0, 0.0, 0.0, 0.0, 55.0]], 'homogeneous_poisson': 0.29, 'poisson_ratio': 0.29, 'universal_anisotropy': 1.46, 'elastic_tensor_original': [[155.72972672264743, 45.5076165843631, 66.92436339853568, 0.0, 0.0, 0.0], [43.879431407610554, 154.84220631992252, 65.5992449649385, 0.0, 0.0, 0.0], [64.7387617678105, 64.73879552593836, 370.21067626287595, 0.0, 0.0, 0.0], [2.714836787138401e-05, -2.3711583887756603e-05, 4.011502342683413e-05, 32.05217611374655, 0.0, 0.0], [-0.00014751763664535536, 6.503653964117673e-05, 1.933507356493197e-05, 0.0, 32.160818668765394, 0.0], [0.019049906107952513, 0.017870588433587672, 0.029495058300254076, 0.0, 0.0, 54.96497654901598]], 'compliance_tensor': [[7.4, -1.7, -1.0, -0.0, 0.0, 0.0], [-1.7, 7.4, -1.0, 0.0, 0.0, 0.0], [-1.0, -1.0, 3.1, 0.0, -0.0, -0.0], [-0.0, 0.0, 0.0, 31.1, 0.0, 0.0], [0.0, 0.0, -0.0, 0.0, 31.1, -0.0], [0.0, 0.0, -0.0, 0.0, -0.0, 18.1]], 'warnings': [], 'nsites': 8}",0,52,106,1.46,0.29,134.16