,mp_id,Formula,Composition,IPF,Density,Elastic_Tensor,E_above_Hull,G_VRH,K_VRH,Elastic_Anisotropy,poisson_ratio,Y_Modulus
104,mp-1029932,LiVN2,"{'Li': 1.0, 'V': 1.0, 'N': 2.0}",0.154013694,3.086554311,"{'G_Reuss': 44.0, 'G_VRH': 46.0, 'G_Voigt': 47.0, 'G_Voigt_Reuss_Hill': 46.0, 'K_Reuss': 79.0, 'K_VRH': 80.0, 'K_Voigt': 82.0, 'K_Voigt_Reuss_Hill': 80.0, 'elastic_anisotropy': 0.3, 'elastic_tensor': [[155.0, 64.0, 53.0, 0.0, 0.0, 0.0], [64.0, 138.0, 54.0, 0.0, 0.0, 0.0], [53.0, 54.0, 103.0, 0.0, 0.0, 0.0], [0.0, 0.0, 0.0, 55.0, 0.0, 0.0], [0.0, 0.0, 0.0, 0.0, 49.0, 0.0], [0.0, 0.0, 0.0, 0.0, 0.0, 55.0]], 'homogeneous_poisson': 0.26, 'poisson_ratio': 0.26, 'universal_anisotropy': 0.3, 'elastic_tensor_original': [[102.54590828123423, 52.36967279756526, 54.27010843764594, 0.0, 0.0, 0.0], [53.927135560458076, 154.69564145728827, 64.19222467327957, 0.0, 0.0, 0.0], [54.52626812334783, 63.12295557189811, 138.25796787523578, 0.0, 0.0, 0.0], [0.0001278465540603666, 0.0001768031776074497, 0.00013069655154967282, 54.7078312438478, 0.0, 0.0], [0.0003420839061604727, 0.0003776833887860759, 0.0003698768279323149, 0.0, 55.359900199511, 0.0], [-0.022792419527858918, -0.002926327356692312, -0.041276685500303514, 0.0, 0.0, 48.923237189625944]], 'compliance_tensor': [[8.6, -2.8, -3.0, 0.0, 0.0, 0.0], [-2.8, 10.0, -3.9, 0.0, 0.0, 0.0], [-3.0, -3.9, 13.4, 0.0, 0.0, 0.0], [0.0, 0.0, 0.0, 18.1, 0.0, 0.0], [0.0, 0.0, 0.0, 0.0, 20.4, 0.0], [0.0, 0.0, 0.0, 0.0, 0.0, 18.3]], 'warnings': [], 'nsites': 16}",0,46,80,0.3,0.26,115.92
105,mp-18946,VBO3,"{'V': 1.0, 'B': 1.0, 'O': 3.0}",0.582616123,3.875868528,"{'G_Reuss': 86.0, 'G_VRH': 89.0, 'G_Voigt': 92.0, 'G_Voigt_Reuss_Hill': 89.0, 'K_Reuss': 176.0, 'K_VRH': 182.0, 'K_Voigt': 188.0, 'K_Voigt_Reuss_Hill': 182.0, 'elastic_anisotropy': 0.4, 'elastic_tensor': [[360.0, 149.0, 111.0, 19.0, 0.0, 0.0], [149.0, 360.0, 111.0, -19.0, 0.0, 0.0], [111.0, 111.0, 229.0, 0.0, 0.0, 0.0], [19.0, -19.0, 0.0, 80.0, 0.0, 0.0], [0.0, 0.0, 0.0, 0.0, 80.0, 19.0], [0.0, 0.0, 0.0, 0.0, 19.0, 106.0]], 'homogeneous_poisson': 0.29, 'poisson_ratio': 0.29, 'universal_anisotropy': 0.4, 'elastic_tensor_original': [[359.859750496435, 149.67714168087286, 111.58549671189573, -19.47392985459451, 0.0, 0.0], [149.35845169625878, 359.2775796496615, 111.5941946602368, 19.885606118215378, 0.0, 0.0], [110.61221055766428, 110.61215812063166, 229.00513153774503, 0.0, 0.0, 0.0], [-19.565906818796474, 17.509375971927522, -0.2264831763687862, 80.01153861621279, 0.0, 0.0], [0.00033911903033039827, -0.0009707438909399009, 2.8533251747344334e-06, -5.239985016620669e-06, 79.93441111706892, -18.520619585826815], [7.156646445917228e-06, -7.173313054577292e-06, 7.139979816265365e-06, -1.6699952806138644e-06, -19.37938800631746, 106.47701743797388]], 'compliance_tensor': [[3.7, -1.2, -1.2, -1.2, -0.0, -0.0], [-1.2, 3.7, -1.2, 1.2, 0.0, -0.0], [-1.2, -1.2, 5.5, 0.0, -0.0, 0.0], [-1.2, 1.2, 0.0, 13.1, -0.0, 0.0], [-0.0, 0.0, -0.0, -0.0, 13.1, -2.4], [-0.0, -0.0, 0.0, 0.0, -2.4, 9.9]], 'warnings': [], 'nsites': 10}",0,89,182,0.4,0.29,229.62
106,mp-19340,LiVO2,"{'Li': 1.0, 'V': 1.0, 'O': 2.0}",0.575773267,3.945466781,"{'G_Reuss': 56.0, 'G_VRH': 62.0, 'G_Voigt': 68.0, 'G_Voigt_Reuss_Hill': 62.0, 'K_Reuss': 117.0, 'K_VRH': 120.0, 'K_Voigt': 123.0, 'K_Voigt_Reuss_Hill': 120.0, 'elastic_anisotropy': 1.13, 'elastic_tensor': [[255.0, 109.0, 46.0, -22.0, 0.0, 0.0], [109.0, 255.0, 46.0, 22.0, 0.0, 0.0], [46.0, 46.0, 196.0, 0.0, 0.0, 0.0], [-22.0, 22.0, 0.0, 49.0, 0.0, 0.0], [0.0, 0.0, 0.0, 0.0, 49.0, -22.0], [0.0, 0.0, 0.0, 0.0, -22.0, 73.0]], 'homogeneous_poisson': 0.28, 'poisson_ratio': 0.28, 'universal_anisotropy': 1.13, 'elastic_tensor_original': [[255.73945335244412, 108.53928838537655, 45.30856570881502, 19.898131924926794, 0.0, 0.0], [109.06657078900162, 255.08633614405323, 45.58083226372025, -20.185994539807854, 0.0, 0.0], [45.64991481540598, 45.64989613623478, 196.29645366169132, 0.0, 0.0, 0.0], [22.787018399382152, -21.974284865438143, -0.021346185203040966, 49.18237399902009, 0.0, 0.0], [-8.696737364149804e-05, -9.08000931725672e-05, -0.00010583743239299537, -0.00014262709601522663, 49.39737660512574, 22.246667225676283], [-11.192428780037485, 8.63775182762562, 1.925133738699806, 0.9992953023856489, 22.58967240358991, 73.47582276194863]], 'compliance_tensor': [[5.4, -2.5, -0.7, 3.5, -0.0, 0.0], [-2.5, 5.4, -0.7, -3.5, 0.0, 0.0], [-0.7, -0.7, 5.4, 0.0, -0.0, -0.0], [3.5, -3.5, 0.0, 23.4, 0.0, 0.0], [-0.0, 0.0, -0.0, 0.0, 23.4, 6.9], [0.0, 0.0, -0.0, 0.0, 6.9, 15.7]], 'warnings': [], 'nsites': 8}",0,62,120,1.13,0.28,158.72
107,mp-4595,VFe2Si,"{'V': 1.0, 'Fe': 2.0, 'Si': 1.0}",0.175601672,7.112631277,"{'G_Reuss': 13.0, 'G_VRH': 44.0, 'G_Voigt': 74.0, 'G_Voigt_Reuss_Hill': 44.0, 'K_Reuss': 246.0, 'K_VRH': 246.0, 'K_Voigt': 246.0, 'K_Voigt_Reuss_Hill': 246.0, 'elastic_anisotropy': 22.73, 'elastic_tensor': [[253.0, 242.0, 242.0, 0.0, 0.0, 0.0], [242.0, 253.0, 242.0, 0.0, 0.0, 0.0], [242.0, 242.0, 253.0, 0.0, 0.0, 0.0], [0.0, 0.0, 0.0, 119.0, 0.0, 0.0], [0.0, 0.0, 0.0, 0.0, 119.0, 0.0], [0.0, 0.0, 0.0, 0.0, 0.0, 119.0]], 'homogeneous_poisson': 0.42, 'poisson_ratio': 0.42, 'universal_anisotropy': 22.73, 'elastic_tensor_original': [[253.32963834204315, 241.91994143480613, 241.91994143480613, 0.0, 0.0, 0.0], [241.86009754916716, 253.2855319267109, 241.86009754916716, 0.0, 0.0, 0.0], [241.73943072672668, 241.73943072672668, 253.17449477634548, 0.0, 0.0, 0.0], [-4.754329406435293e-05, 0.0007856826844003896, 0.0006236294849150569, 119.3304082260153, 0.0, 0.0], [0.0010930324305485212, -0.0004853429324651499, 0.00011790990261262815, 0.0, 119.32973279323986, 0.0], [-7.007327545617664e-05, -6.890327642275295e-05, 0.0003208664016490036, 0.0, 0.0, 119.32973140990764]], 'compliance_tensor': [[58.8, -28.7, -28.7, -0.0, 0.0, 0.0], [-28.7, 58.8, -28.7, 0.0, -0.0, -0.0], [-28.7, -28.7, 58.8, 0.0, 0.0, -0.0], [-0.0, 0.0, 0.0, 8.4, -0.0, -0.0], [0.0, -0.0, 0.0, -0.0, 8.4, -0.0], [0.0, -0.0, -0.0, -0.0, -0.0, 8.4]], 'warnings': ['c11 and c12 are within 5% or c12 is greater than c11', 'c11 and c13 are within 5% or c13 is greater than c11', 'c11 and c23 are within 5% or c23 is greater than c11'], 'nsites': 4}",0,44,246,22.73,0.42,124.96
108,mp-5541,ZrVSi,"{'Zr': 1.0, 'V': 1.0, 'Si': 1.0}",0.107223138,5.727370857,"{'G_Reuss': 27.0, 'G_VRH': 60.0, 'G_Voigt': 93.0, 'G_Voigt_Reuss_Hill': 60.0, 'K_Reuss': 156.0, 'K_VRH': 156.0, 'K_Voigt': 156.0, 'K_Voigt_Reuss_Hill': 156.0, 'elastic_anisotropy': 12.15, 'elastic_tensor': [[194.0, 180.0, 86.0, 0.0, 0.0, 0.0], [180.0, 194.0, 86.0, 0.0, 0.0, 0.0], [86.0, 86.0, 314.0, 0.0, 0.0, 0.0], [0.0, 0.0, 0.0, 102.0, 0.0, 0.0], [0.0, 0.0, 0.0, 0.0, 102.0, 0.0], [0.0, 0.0, 0.0, 0.0, 0.0, 145.0]], 'homogeneous_poisson': 0.33, 'poisson_ratio': 0.33, 'universal_anisotropy': 12.15, 'elastic_tensor_original': [[193.58474493222786, 180.12227192100806, 85.28707815475575, 0.0, 0.0, 0.0], [180.12268251739414, 193.58572994335714, 85.28834996995208, 0.0, 0.0, 0.0], [85.75704860367765, 85.75704860367765, 314.23623604186906, 0.0, 0.0, 0.0], [6.524183403930341e-05, 0.00012888899181608343, -4.488350185158793e-05, 101.61137490743158, 0.0, 0.0], [0.37626266095468214, 0.1419819512137714, -0.0618396214902478, 0.0, 101.5938842942244, 0.0], [-2.272212121756716, -0.08921118602928334, -0.5805466659332039, 0.0, 0.0, 145.41665912327497]], 'compliance_tensor': [[38.7, -35.6, -0.8, 0.0, 0.0, 0.0], [-35.6, 38.7, -0.8, 0.0, -0.0, -0.0], [-0.8, -0.8, 3.6, 0.0, -0.0, -0.0], [0.0, 0.0, 0.0, 9.8, 0.0, 0.0], [0.0, -0.0, -0.0, 0.0, 9.8, 0.0], [0.0, -0.0, -0.0, 0.0, 0.0, 6.9]], 'warnings': [], 'nsites': 6}",0,60,156,12.15,0.33,159.6
109,mp-557686,ZrVF6,"{'Zr': 1.0, 'V': 1.0, 'F': 6.0}",0.094031489,2.976044906,"{'G_Reuss': 20.0, 'G_VRH': 32.0, 'G_Voigt': 44.0, 'G_Voigt_Reuss_Hill': 32.0, 'K_Reuss': 72.0, 'K_VRH': 72.0, 'K_Voigt': 72.0, 'K_Voigt_Reuss_Hill': 72.0, 'elastic_anisotropy': 6.26, 'elastic_tensor': [[194.0, 11.0, 11.0, 0.0, 0.0, 0.0], [11.0, 194.0, 11.0, 0.0, 0.0, 0.0], [11.0, 11.0, 194.0, 0.0, 0.0, 0.0], [0.0, 0.0, 0.0, 13.0, 0.0, 0.0], [0.0, 0.0, 0.0, 0.0, 13.0, 0.0], [0.0, 0.0, 0.0, 0.0, 0.0, 13.0]], 'homogeneous_poisson': 0.31, 'poisson_ratio': 0.31, 'universal_anisotropy': 6.26, 'elastic_tensor_original': [[194.42205021256885, 11.363936937359028, 11.363936937359028, 0.0, 0.0, 0.0], [11.362683808687548, 194.4231795385406, 11.362683808687548, 0.0, 0.0, 0.0], [11.364106602430912, 11.364106602430912, 194.42393148476108, 0.0, 0.0, 0.0], [-8.443344062842904e-05, -1.3446629432095818e-05, -0.00014494024062018193, 12.93445110779246, 0.0, 0.0], [-0.00011003316221060826, -0.00018010003662968953, -0.00030232027007969235, 0.0, 12.934465324469464, 0.0], [-1.9933307079156337e-05, -2.7066206167404303e-06, -1.4509969193248717e-05, 0.0, 0.0, 12.934448591122335]], 'compliance_tensor': [[5.2, -0.3, -0.3, 0.0, 0.0, 0.0], [-0.3, 5.2, -0.3, -0.0, -0.0, 0.0], [-0.3, -0.3, 5.2, 0.0, 0.0, -0.0], [0.0, -0.0, 0.0, 77.3, 0.0, -0.0], [0.0, -0.0, 0.0, 0.0, 77.3, -0.0], [0.0, 0.0, -0.0, -0.0, -0.0, 77.3]], 'warnings': [], 'nsites': 8}",0,32,72,6.26,0.31,83.84
110,mp-777667,LiV2O5,"{'Li': 1.0, 'V': 2.0, 'O': 5.0}",0.496472384,3.184212175,"{'G_Reuss': 32.0, 'G_VRH': 36.0, 'G_Voigt': 40.0, 'G_Voigt_Reuss_Hill': 36.0, 'K_Reuss': 64.0, 'K_VRH': 74.0, 'K_Voigt': 84.0, 'K_Voigt_Reuss_Hill': 74.0, 'elastic_anisotropy': 1.53, 'elastic_tensor': [[65.0, 54.0, 60.0, 0.0, 0.0, 0.0], [54.0, 138.0, 62.0, 0.0, 0.0, 0.0], [60.0, 62.0, 202.0, 0.0, 0.0, 0.0], [0.0, 0.0, 0.0, 45.0, 0.0, 0.0], [0.0, 0.0, 0.0, 0.0, 31.0, 0.0], [0.0, 0.0, 0.0, 0.0, 0.0, 48.0]], 'homogeneous_poisson': 0.29, 'poisson_ratio': 0.29, 'universal_anisotropy': 1.53, 'elastic_tensor_original': [[202.3641094433477, 62.55535037855828, 59.88650540619484, 0.0, 0.0, 0.0], [61.72979184364782, 137.95775425953107, 54.51038993324553, 0.0, 0.0, 0.0], [60.974670929326805, 54.14776073864129, 65.36851738314711, 0.0, 0.0, 0.0], [-0.05196593604628835, -0.011435020996335614, -0.06832994603527766, 47.753404517211806, 0.0, 0.0], [-0.1286633825585936, -0.025642590959610464, -0.037445296594381866, 0.0, 30.52480907695319, 0.0], [-0.059261528281440226, -0.020790728673895725, -0.05556139072181278, 0.0, 0.0, 44.666726654376845]], 'compliance_tensor': [[27.4, -8.2, -5.6, 0.0, -0.0, 0.0], [-8.2, 10.9, -0.9, 0.0, 0.0, 0.0], [-5.6, -0.9, 6.9, 0.0, -0.0, 0.0], [0.0, 0.0, 0.0, 22.4, 0.0, 0.0], [-0.0, 0.0, -0.0, 0.0, 32.8, 0.0], [0.0, 0.0, 0.0, 0.0, 0.0, 20.9]], 'warnings': ['c11 and c23 are within 5% or c23 is greater than c11'], 'nsites': 32}",0,36,74,1.53,0.29,92.88
111,mp-864670,Ta2VOs,"{'Ta': 2.0, 'V': 1.0, 'Os': 1.0}",0.123384885,15.71065085,"{'G_Reuss': 96.0, 'G_VRH': 97.0, 'G_Voigt': 97.0, 'G_Voigt_Reuss_Hill': 97.0, 'K_Reuss': 247.0, 'K_VRH': 247.0, 'K_Voigt': 247.0, 'K_Voigt_Reuss_Hill': 247.0, 'elastic_anisotropy': 0.07, 'elastic_tensor': [[396.0, 173.0, 173.0, 0.0, 0.0, 0.0], [173.0, 396.0, 173.0, 0.0, 0.0, 0.0], [173.0, 173.0, 396.0, 0.0, 0.0, 0.0], [0.0, 0.0, 0.0, 88.0, 0.0, 0.0], [0.0, 0.0, 0.0, 0.0, 88.0, 0.0], [0.0, 0.0, 0.0, 0.0, 0.0, 88.0]], 'homogeneous_poisson': 0.33, 'poisson_ratio': 0.33, 'universal_anisotropy': 0.07, 'elastic_tensor_original': [[396.0854648270962, 172.7538520650488, 172.75442552933336, -1.587943896804259e-05, -1.732302432877373e-05, -2.7027125920355317e-05], [173.4516672313655, 394.5827474755998, 173.45141442431344, -3.845532967824252e-05, 9.022261738691589e-06, 2.6987197346562975e-05], [172.77846181311995, 172.77818897548684, 396.1062434698134, 1.5799239781335303e-05, 1.311256702664123e-05, -5.32923595669914e-05], [1.200999550759881e-05, 1.6449993845599247e-05, 3.2416654536129495e-05, 87.8498901773727, 0.0, 0.0], [0.00016763327060212403, 0.00020700992253227688, 0.00019277992785714072, 0.0, 87.8498870607072, 0.0], [9.833329654276914e-06, 2.0019992509858763e-05, 1.2983328476060988e-05, 0.0, 0.0, 87.8498542407195]], 'compliance_tensor': [[3.4, -1.0, -1.0, 0.0, 0.0, 0.0], [-1.0, 3.4, -1.0, 0.0, 0.0, -0.0], [-1.0, -1.0, 3.4, 0.0, 0.0, -0.0], [0.0, 0.0, 0.0, 11.4, 0.0, 0.0], [0.0, 0.0, 0.0, 0.0, 11.4, 0.0], [0.0, -0.0, -0.0, 0.0, 0.0, 11.4]], 'warnings': [], 'nsites': 4}",0,97,247,0.07,0.33,258.02
112,mp-865471,VGaTc2,"{'V': 1.0, 'Ga': 1.0, 'Tc': 2.0}",0.127775565,9.299074592,"{'G_Reuss': 65.0, 'G_VRH': 74.0, 'G_Voigt': 84.0, 'G_Voigt_Reuss_Hill': 74.0, 'K_Reuss': 229.0, 'K_VRH': 229.0, 'K_Voigt': 229.0, 'K_Voigt_Reuss_Hill': 229.0, 'elastic_anisotropy': 1.51, 'elastic_tensor': [[282.0, 203.0, 203.0, 0.0, 0.0, 0.0], [203.0, 282.0, 203.0, 0.0, 0.0, 0.0], [203.0, 203.0, 282.0, 0.0, 0.0, 0.0], [0.0, 0.0, 0.0, 114.0, 0.0, 0.0], [0.0, 0.0, 0.0, 0.0, 114.0, 0.0], [0.0, 0.0, 0.0, 0.0, 0.0, 114.0]], 'homogeneous_poisson': 0.35, 'poisson_ratio': 0.35, 'universal_anisotropy': 1.51, 'elastic_tensor_original': [[280.5649816992042, 202.53476114114625, 202.53476114114625, 0.0, 0.0, 0.0], [202.53881110730157, 280.5777048034999, 202.53881110730157, 0.0, 0.0, 0.0], [204.44928629037028, 204.44928629037028, 283.4794519000784, 0.0, 0.0, 0.0], [1.765999611750841e-05, 1.7893329398482154e-05, 2.404999471016686e-05, 114.23857144699276, 0.0, 0.0], [9.23333130535857e-06, -9.906664483952511e-06, 4.0999990983363885e-07, 0.0, 114.23858476032318, 0.0], [-4.7193322953012945e-05, -4.5323323364794705e-05, -4.0059991184610006e-05, 0.0, 0.0, 114.23859312032133]], 'compliance_tensor': [[9.0, -3.8, -3.8, -0.0, 0.0, -0.0], [-3.8, 9.0, -3.8, -0.0, -0.0, 0.0], [-3.8, -3.8, 9.0, 0.0, -0.0, -0.0], [-0.0, -0.0, 0.0, 8.8, -0.0, -0.0], [0.0, -0.0, -0.0, -0.0, 8.8, -0.0], [-0.0, 0.0, -0.0, -0.0, -0.0, 8.8]], 'warnings': [], 'nsites': 4}",0,74,229,1.51,0.35,199.8
113,mp-865472,VSiTc2,"{'V': 1.0, 'Si': 1.0, 'Tc': 2.0}",0.11233283,8.485054245,"{'G_Reuss': 101.0, 'G_VRH': 102.0, 'G_Voigt': 103.0, 'G_Voigt_Reuss_Hill': 102.0, 'K_Reuss': 257.0, 'K_VRH': 257.0, 'K_Voigt': 257.0, 'K_Voigt_Reuss_Hill': 257.0, 'elastic_anisotropy': 0.14, 'elastic_tensor': [[368.0, 201.0, 201.0, 0.0, 0.0, 0.0], [201.0, 368.0, 201.0, 0.0, 0.0, 0.0], [201.0, 201.0, 368.0, 0.0, 0.0, 0.0], [0.0, 0.0, 0.0, 117.0, 0.0, 0.0], [0.0, 0.0, 0.0, 0.0, 117.0, 0.0], [0.0, 0.0, 0.0, 0.0, 0.0, 117.0]], 'homogeneous_poisson': 0.32, 'poisson_ratio': 0.32, 'universal_anisotropy': 0.14, 'elastic_tensor_original': [[368.85014957706096, 199.56650808755475, 199.56650808755475, 0.0, 0.0, 0.0], [204.88210767598636, 363.1738700638375, 204.88210767598636, 0.0, 0.0, 0.0], [198.9663485805378, 198.9663485805378, 371.47250441493316, 0.0, 0.0, 0.0], [-0.0010479076120336194, -0.0011031974836338005, -0.001099934158078107, 116.89484718435209, 0.0, 0.0], [-0.001093070860095229, -0.0009754411270097241, -0.0010959608516054344, 0.0, 116.8944923884792, 0.0], [7.056985445171695e-05, 7.353651358570177e-05, -2.7719924639909205e-05, 0.0, 0.0, 116.89501934062248]], 'compliance_tensor': [[4.4, -1.6, -1.6, -0.0, -0.0, 0.0], [-1.6, 4.4, -1.6, 0.0, -0.0, -0.0], [-1.6, -1.6, 4.4, -0.0, 0.0, -0.0], [-0.0, 0.0, -0.0, 8.6, -0.0, -0.0], [-0.0, -0.0, 0.0, -0.0, 8.6, -0.0], [0.0, -0.0, -0.0, -0.0, -0.0, 8.6]], 'warnings': [], 'nsites': 4}",0,102,257,0.14,0.32,269.28
114,mp-865482,VTc2Ge,"{'V': 1.0, 'Tc': 2.0, 'Ge': 1.0}",0.130221105,9.467982401,"{'G_Reuss': 86.0, 'G_VRH': 90.0, 'G_Voigt': 93.0, 'G_Voigt_Reuss_Hill': 90.0, 'K_Reuss': 239.0, 'K_VRH': 239.0, 'K_Voigt': 239.0, 'K_Voigt_Reuss_Hill': 239.0, 'elastic_anisotropy': 0.39, 'elastic_tensor': [[325.0, 197.0, 197.0, 0.0, 0.0, 0.0], [197.0, 325.0, 197.0, 0.0, 0.0, 0.0], [197.0, 197.0, 325.0, 0.0, 0.0, 0.0], [0.0, 0.0, 0.0, 112.0, 0.0, 0.0], [0.0, 0.0, 0.0, 0.0, 112.0, 0.0], [0.0, 0.0, 0.0, 0.0, 0.0, 112.0]], 'homogeneous_poisson': 0.33, 'poisson_ratio': 0.33, 'universal_anisotropy': 0.39, 'elastic_tensor_original': [[324.91667036395074, 196.74249167323683, 196.74249167323683, 0.0, 0.0, 0.0], [196.7396722286197, 324.913686800782, 196.7396722286197, 0.0, 0.0, 0.0], [196.74437174464285, 196.74437174464285, 324.9183429113253, 0.0, 0.0, 0.0], [-2.9356690262598187e-05, -1.9970017250149944e-05, -2.338335272172227e-05, 112.47653398137673, 0.0, 0.0], [-1.5786659152891253e-05, -1.1776659227407833e-05, -1.0559989358093165e-05, 0.0, 112.47653400471164, 0.0], [4.10933408267816e-05, 4.27733421997197e-05, 3.8636675065258244e-05, 0.0, 0.0, 112.47653750137783]], 'compliance_tensor': [[5.7, -2.1, -2.1, 0.0, -0.0, 0.0], [-2.1, 5.7, -2.1, 0.0, 0.0, -0.0], [-2.1, -2.1, 5.7, -0.0, 0.0, 0.0], [0.0, 0.0, -0.0, 8.9, -0.0, -0.0], [-0.0, 0.0, 0.0, -0.0, 8.9, -0.0], [0.0, -0.0, 0.0, -0.0, -0.0, 8.9]], 'warnings': [], 'nsites': 4}",0,90,239,0.39,0.33,239.4
115,mp-865484,V2CrRe,"{'V': 2.0, 'Cr': 1.0, 'Re': 1.0}",0.167943621,10.61855263,"{'G_Reuss': 109.0, 'G_VRH': 112.0, 'G_Voigt': 115.0, 'G_Voigt_Reuss_Hill': 112.0, 'K_Reuss': 251.0, 'K_VRH': 251.0, 'K_Voigt': 251.0, 'K_Voigt_Reuss_Hill': 251.0, 'elastic_anisotropy': 0.28, 'elastic_tensor': [[450.0, 151.0, 151.0, 0.0, 0.0, 0.0], [151.0, 450.0, 151.0, 0.0, 0.0, 0.0], [151.0, 151.0, 450.0, 0.0, 0.0, 0.0], [0.0, 0.0, 0.0, 93.0, 0.0, 0.0], [0.0, 0.0, 0.0, 0.0, 93.0, 0.0], [0.0, 0.0, 0.0, 0.0, 0.0, 93.0]], 'homogeneous_poisson': 0.31, 'poisson_ratio': 0.31, 'universal_anisotropy': 0.28, 'elastic_tensor_original': [[448.6720791724719, 150.789733437788, 150.789733437788, 0.0, 0.0, 0.0], [151.6078327451925, 450.7808388648877, 151.6078327451925, 0.0, 0.0, 0.0], [151.6134542648724, 151.6134542648724, 450.78988702221307, 0.0, 0.0, 0.0], [0.0002963899543234451, 0.00027124995819873064, 0.00025217329447168576, 92.54777604112397, 0.0, 0.0], [-0.0009161365254847554, -0.0009468265207543804, -0.0008956198619791051, 0.0, 92.5471861045482, 0.0], [0.000584849909870338, 0.0006153099051765944, 0.0005898099091058388, 0.0, 0.0, 92.54730664452964]], 'compliance_tensor': [[2.7, -0.7, -0.7, -0.0, 0.0, -0.0], [-0.7, 2.7, -0.7, -0.0, -0.0, 0.0], [-0.7, -0.7, 2.7, 0.0, -0.0, -0.0], [-0.0, -0.0, 0.0, 10.8, -0.0, -0.0], [0.0, -0.0, -0.0, -0.0, 10.8, -0.0], [-0.0, 0.0, -0.0, -0.0, -0.0, 10.8]], 'warnings': [], 'nsites': 4}",0,112,251,0.28,0.31,293.44
116,mp-865490,V2CrFe,"{'V': 2.0, 'Cr': 1.0, 'Fe': 1.0}",0.211257106,7.348434424,"{'G_Reuss': 100.0, 'G_VRH': 107.0, 'G_Voigt': 114.0, 'G_Voigt_Reuss_Hill': 107.0, 'K_Reuss': 232.0, 'K_VRH': 232.0, 'K_Voigt': 232.0, 'K_Voigt_Reuss_Hill': 232.0, 'elastic_anisotropy': 0.68, 'elastic_tensor': [[453.0, 121.0, 121.0, 0.0, 0.0, 0.0], [121.0, 453.0, 121.0, 0.0, 0.0, 0.0], [121.0, 121.0, 453.0, 0.0, 0.0, 0.0], [0.0, 0.0, 0.0, 79.0, 0.0, 0.0], [0.0, 0.0, 0.0, 0.0, 79.0, 0.0], [0.0, 0.0, 0.0, 0.0, 0.0, 79.0]], 'homogeneous_poisson': 0.3, 'poisson_ratio': 0.3, 'universal_anisotropy': 0.68, 'elastic_tensor_original': [[452.9643910994005, 121.54247322331065, 121.54247322331065, 0.0, 0.0, 0.0], [121.37482333627398, 453.1994250648695, 121.37482333627398, 0.0, 0.0, 0.0], [121.40286572116413, 121.40286572116413, 451.7344547447693, 0.0, 0.0, 0.0], [0.0003416804238900236, 0.00035165710293263666, 0.000345337095091701, 79.25308954794394, 0.0, 0.0], [0.00015619019376986442, 0.0001779635541172266, 0.00017886022189387763, 0.0, 79.26061912061847, 0.0], [-0.10388317221065745, -0.17587427818939522, -0.13830220824420153, 0.0, 0.0, 79.25679924921288]], 'compliance_tensor': [[2.5, -0.5, -0.5, -0.0, 0.0, -0.0], [-0.5, 2.5, -0.5, -0.0, -0.0, 0.0], [-0.5, -0.5, 2.5, 0.0, -0.0, -0.0], [-0.0, -0.0, 0.0, 12.6, -0.0, -0.0], [0.0, -0.0, -0.0, -0.0, 12.6, -0.0], [-0.0, 0.0, -0.0, -0.0, -0.0, 12.6]], 'warnings': [], 'nsites': 4}",0,107,232,0.68,0.3,278.2