,mp_id,Formula,Composition,IPF,Density,Elastic_Tensor,E_above_Hull,G_VRH,K_VRH,Elastic_Anisotropy,poisson_ratio,Y_Modulus
169,mp-19365,Ba3V2O8,"{'Ba': 3.0, 'V': 2.0, 'O': 8.0}",0.518621058,4.91171829,"{'G_Reuss': 28.0, 'G_VRH': 29.0, 'G_Voigt': 30.0, 'G_Voigt_Reuss_Hill': 29.0, 'K_Reuss': 68.0, 'K_VRH': 69.0, 'K_Voigt': 70.0, 'K_Voigt_Reuss_Hill': 69.0, 'elastic_anisotropy': 0.3, 'elastic_tensor': [[97.0, 47.0, 50.0, -4.0, 0.0, 0.0], [47.0, 97.0, 50.0, 4.0, 0.0, 0.0], [50.0, 50.0, 145.0, 0.0, 0.0, 0.0], [-4.0, 4.0, 0.0, 30.0, 0.0, 0.0], [0.0, 0.0, 0.0, 0.0, 30.0, -4.0], [0.0, 0.0, 0.0, 0.0, -4.0, 25.0]], 'homogeneous_poisson': 0.31, 'poisson_ratio': 0.31, 'universal_anisotropy': 0.3, 'elastic_tensor_original': [[96.93272783416228, 46.5444438398962, 49.617107754575954, 4.560074512164479, 0.0, 0.0], [46.558872218393475, 96.78595316403712, 49.79725665232669, -3.934284534210645, 0.0, 0.0], [49.580743903152495, 49.58073876364841, 144.72791962770725, 0.0, 0.0, 0.0], [4.380239103107889, -3.96078329413991, -0.1641731246782616, 29.900332566687734, 0.0, 0.0], [0.032477325105935935, 0.0332510114195874, 0.034600099949745895, 0.0019789409564137826, 30.16575780154553, 4.154651804138333], [-0.00017094968575034889, -0.00014284973740540715, 0.0002345662354697754, 3.104994292192563e-05, 4.307258482108098, 24.97249479388243]], 'compliance_tensor': [[14.8, -5.6, -3.1, 2.9, 0.0, -0.0], [-5.6, 14.8, -3.1, -2.9, -0.0, -0.0], [-3.1, -3.1, 9.1, -0.0, -0.0, 0.0], [2.9, -2.9, 0.0, 34.1, -0.0, -0.0], [-0.0, -0.0, 0.0, -0.0, 34.1, 5.7], [-0.0, -0.0, 0.0, -0.0, 5.7, 40.9]], 'warnings': [], 'nsites': 13}",0,29,69,0.3,0.31,75.98
170,mp-865485,V2CrOs,"{'V': 2.0, 'Cr': 1.0, 'Os': 1.0}",0.165444345,10.87437114,"{'G_Reuss': 122.0, 'G_VRH': 125.0, 'G_Voigt': 127.0, 'G_Voigt_Reuss_Hill': 125.0, 'K_Reuss': 265.0, 'K_VRH': 265.0, 'K_Voigt': 265.0, 'K_Voigt_Reuss_Hill': 265.0, 'elastic_anisotropy': 0.23, 'elastic_tensor': [[481.0, 157.0, 157.0, 0.0, 0.0, 0.0], [157.0, 481.0, 157.0, 0.0, 0.0, 0.0], [157.0, 157.0, 481.0, 0.0, 0.0, 0.0], [0.0, 0.0, 0.0, 105.0, 0.0, 0.0], [0.0, 0.0, 0.0, 0.0, 105.0, 0.0], [0.0, 0.0, 0.0, 0.0, 0.0, 105.0]], 'homogeneous_poisson': 0.3, 'poisson_ratio': 0.3, 'universal_anisotropy': 0.23, 'elastic_tensor_original': [[477.45934442182903, 156.24303380348545, 156.24303380348545, 0.0, 0.0, 0.0], [158.04462434973897, 482.247782119255, 158.04462434973897, 0.0, 0.0, 0.0], [157.96528141829708, 157.96528141829708, 482.1686002056801, 0.0, 0.0, 0.0], [-0.000784054048973741, -0.0008126907417781422, -0.0008178040797793334, 104.51849955202181, 0.0, 0.0], [8.101674061484185e-05, 0.0001507968043069075, 0.00010791009849443945, 0.0, 104.5185717720877, 0.0], [0.0005542638392355937, 0.0005613671790516362, 0.0005713005214526349, 0.0, 0.0, 104.51868762219347]], 'compliance_tensor': [[2.5, -0.6, -0.6, -0.0, 0.0, 0.0], [-0.6, 2.5, -0.6, 0.0, 0.0, 0.0], [-0.6, -0.6, 2.5, 0.0, -0.0, -0.0], [-0.0, 0.0, 0.0, 9.6, -0.0, 0.0], [0.0, 0.0, -0.0, -0.0, 9.6, 0.0], [0.0, 0.0, -0.0, 0.0, 0.0, 9.6]], 'warnings': [], 'nsites': 4}",0,125,265,0.23,0.3,325
171,mp-557533,Cs2TlVF6,"{'Cs': 2.0, 'Tl': 1.0, 'V': 1.0, 'F': 6.0}",0.337592978,5.060118392,"{'G_Reuss': 13.0, 'G_VRH': 14.0, 'G_Voigt': 14.0, 'G_Voigt_Reuss_Hill': 14.0, 'K_Reuss': 79.0, 'K_VRH': 79.0, 'K_Voigt': 79.0, 'K_Voigt_Reuss_Hill': 79.0, 'elastic_anisotropy': 0.37, 'elastic_tensor': [[95.0, 73.0, 66.0, 0.0, 0.0, 0.0], [73.0, 95.0, 66.0, 0.0, 0.0, 0.0], [66.0, 66.0, 107.0, 0.0, 0.0, 0.0], [0.0, 0.0, 0.0, 11.0, 0.0, 0.0], [0.0, 0.0, 0.0, 0.0, 11.0, 0.0], [0.0, 0.0, 0.0, 0.0, 0.0, 19.0]], 'homogeneous_poisson': 0.42, 'poisson_ratio': 0.42, 'universal_anisotropy': 0.37, 'elastic_tensor_original': [[104.87682450464818, 70.31970052100117, 62.85357604655631, -4.469944309486988e-06, 0.08673493407973802, -2.9715793299763336e-05], [69.43476525622008, 103.14448378804326, 62.275339398445645, 0.0884762950392891, -8.024242276561589e-06, -2.562538092649989e-05], [60.50051250591538, 68.99085756829561, 104.8768245143806, -2.4719642299576413e-07, -0.0850420818927115, -1.6050283036892945e-05], [0.0, 0.0, -2.3872192283329793e-08, 11.182958617689646, -1.1687810533846412e-06, 1.092502360299866e-06], [5.670173662946216e-07, 0.0, -1.8366660721056043e-06, -2.3614160129786483e-06, 11.182958617690037, 8.08987854349057e-07], [-2.337568247710152e-06, -4.722831354152894e-06, 0.0, -1.7428979605800241e-06, -1.1926103499988984e-08, 11.182911317901384]], 'compliance_tensor': [[28.45093870705811, -16.830475508335567, -7.1873140573287655, 5.661525604060464e-07, 2.326936481613668e-06, -2.8157561158566637e-05], [-16.830475508335596, 28.450902781930907, -7.187309519601733, -2.933316058008448e-06, -1.376523933488278e-06, -9.344100308722124e-06], [-7.1873140573287495, -7.187309519601755, 18.236914532454474, -1.43654605889423e-06, 3.0456449162629817e-06, 7.1132005039928435e-06], [5.66152560408777e-07, -2.9333160580057073e-06, -1.436546058898972e-06, 88.8514284317233, -4.396763739722948e-05, 2.1487218413016604e-06], [2.326936481613965e-06, -1.3765239334879807e-06, 3.0456449162605765e-06, -4.396763739166721e-05, 88.85148452830948, -3.499473540205194e-06], [-2.8157561170539645e-05, -9.34410027642285e-06, 7.113200489570121e-06, 2.1487218413073804e-06, -3.4994735402128334e-06, 52.54386656111622]], 'warnings': [], 'nsites': 10}",0,14,79,0.37,0.42,39.76
172,mp-560671,Rb2NaVF6,"{'Rb': 2.0, 'Na': 1.0, 'V': 1.0, 'F': 6.0}",0.346013117,3.706076406,"{'G_Reuss': 23.0, 'G_VRH': 23.0, 'G_Voigt': 23.0, 'G_Voigt_Reuss_Hill': 23.0, 'K_Reuss': 52.0, 'K_VRH': 52.0, 'K_Voigt': 52.0, 'K_Voigt_Reuss_Hill': 52.0, 'elastic_anisotropy': 0.05, 'elastic_tensor': [[82.0, 34.0, 39.0, 0.0, 0.0, 0.0], [34.0, 82.0, 39.0, 0.0, 0.0, 0.0], [39.0, 39.0, 83.0, 0.0, 0.0, 0.0], [0.0, 0.0, 0.0, 25.0, 0.0, 0.0], [0.0, 0.0, 0.0, 0.0, 25.0, 0.0], [0.0, 0.0, 0.0, 0.0, 0.0, 20.0]], 'homogeneous_poisson': 0.31, 'poisson_ratio': 0.31, 'universal_anisotropy': 0.05, 'elastic_tensor_original': [[80.29503630151008, 40.77734010558429, 38.25008647557677, -9.277562231921194e-06, 0.06481405180575012, -1.4035604408918128e-05], [40.20175303408625, 77.92024304473469, 37.876390241861785, 0.06695598162119186, -9.433412600629883e-06, -1.3683602307786387e-05], [35.97963578735959, 39.5485954186545, 80.29503633268857, -1.401050980275559e-05, -0.06280939166082675, -8.748619781301618e-06], [1.6547881822535562e-08, -5.676228588775084e-06, -5.8959801011525046e-06, 24.82211580389011, -2.8527592748564345e-06, -0.0717819422761598], [-5.960691848306086e-06, 1.6380646729539574e-08, -6.127186543787948e-06, -2.823519229482417e-06, 24.8221158035559, -0.07177326324290535], [-5.722569682065047e-06, -5.681730043484824e-06, -1.7577284989518322e-08, 0.07399730737542225, -2.956519794352693e-06, 24.82211578612546]], 'compliance_tensor': [[16.620247133628393, -3.9360549036594343, -6.001505314269473, 8.820254680253714e-08, 1.1217705283968898e-05, 4.578665930349047e-05], [-3.9360549036594272, 16.620231884461052, -6.001502561061184, -2.0474846252069856e-07, -2.6566097516997682e-06, 5.819414098710469e-05], [-6.00150531426948, -6.001502561061177, 17.75189565527859, -2.608362866816383e-07, 9.405550215307047e-06, -1.65333811554791e-05], [8.820254680333172e-08, -2.0474846252140858e-07, -2.6083628668207034e-07, 39.873678010215805, 5.492347171495703e-05, 1.6914140367012292e-05], [1.1217705283968854e-05, -2.65660975170064e-06, 9.405550215307874e-06, 5.49234717107285e-05, 39.87369630240922, -2.9292438793238675e-07], [4.5786659299597425e-05, 5.8194140993741874e-05, -1.6533381157362853e-05, 1.6914140367014742e-05, -2.9292438793116395e-07, 50.12026765003838]], 'warnings': [], 'nsites': 10}",0,23,52,0.05,0.31,60.26