,mp_id,Formula,Composition,IPF,Density,Elastic_Tensor,E_above_Hull,G_VRH,K_VRH,Elastic_Anisotropy,poisson_ratio,Y_Modulus
65,mp-10057,VCoB3,"{'V': 1.0, 'Co': 1.0, 'B': 3.0}",0.120665384,6.022293025,"{'G_Reuss': 203.0, 'G_VRH': 205.0, 'G_Voigt': 206.0, 'G_Voigt_Reuss_Hill': 205.0, 'K_Reuss': 287.0, 'K_VRH': 289.0, 'K_Voigt': 291.0, 'K_Voigt_Reuss_Hill': 289.0, 'elastic_anisotropy': 0.07, 'elastic_tensor': [[475.0, 150.0, 162.0, 0.0, 0.0, 0.0], [150.0, 642.0, 145.0, 0.0, 0.0, 0.0], [162.0, 145.0, 585.0, 0.0, 0.0, 0.0], [0.0, 0.0, 0.0, 220.0, 0.0, 0.0], [0.0, 0.0, 0.0, 0.0, 200.0, 0.0], [0.0, 0.0, 0.0, 0.0, 0.0, 195.0]], 'homogeneous_poisson': 0.21, 'poisson_ratio': 0.21, 'universal_anisotropy': 0.07, 'elastic_tensor_original': [[474.9617032436991, 149.29634304381833, 161.24137083331354, 0.0, 0.0, 0.0], [151.32592614710407, 642.3083593091618, 143.6782099547843, 0.0, 0.0, 0.0], [162.97365435896603, 145.98542636010094, 584.84438408481, 0.0, 0.0, 0.0], [-0.00022926676647012657, -0.0001183167181724572, -0.0002618834473353364, 219.61872567021777, 0.0, 0.0], [-7.56668765236672e-06, -1.319000760011003e-05, -6.290010874938513e-06, 0.0, 200.2448966701156, 0.0], [-1.1583294067735399e-05, -1.7083275424970475e-05, -1.881660288257008e-05, 0.0, 0.0, 195.2006143009392]], 'compliance_tensor': [[2.4, -0.4, -0.6, 0.0, 0.0, 0.0], [-0.4, 1.7, -0.3, 0.0, 0.0, 0.0], [-0.6, -0.3, 1.9, 0.0, 0.0, -0.0], [0.0, 0.0, 0.0, 4.6, 0.0, 0.0], [0.0, 0.0, 0.0, 0.0, 5.0, 0.0], [0.0, 0.0, -0.0, 0.0, 0.0, 5.1]], 'warnings': [], 'nsites': 10}",0,205,289,0.07,0.21,496.1
66,mp-1018720,HfVSi,"{'Hf': 1.0, 'V': 1.0, 'Si': 1.0}",0.10813966,8.891443344,"{'G_Reuss': 33.0, 'G_VRH': 67.0, 'G_Voigt': 100.0, 'G_Voigt_Reuss_Hill': 67.0, 'K_Reuss': 152.0, 'K_VRH': 152.0, 'K_Voigt': 153.0, 'K_Voigt_Reuss_Hill': 152.0, 'elastic_anisotropy': 10.2, 'elastic_tensor': [[191.0, 175.0, 81.0, 0.0, 0.0, 0.0], [175.0, 191.0, 81.0, 0.0, 0.0, 0.0], [81.0, 81.0, 318.0, 0.0, 0.0, 0.0], [0.0, 0.0, 0.0, 112.0, 0.0, 0.0], [0.0, 0.0, 0.0, 0.0, 112.0, 0.0], [0.0, 0.0, 0.0, 0.0, 0.0, 157.0]], 'homogeneous_poisson': 0.31, 'poisson_ratio': 0.31, 'universal_anisotropy': 10.2, 'elastic_tensor_original': [[191.47823906793275, 174.5535893573684, 70.40862258751973, 0.0, 0.0, 0.0], [174.5535893573684, 191.47823906793275, 70.40862258751973, 0.0, 0.0, 0.0], [91.29374046087008, 91.29374046087008, 318.18862804580635, 0.0, 0.0, 0.0], [0.0, 0.0, 0.0, 111.63444867452313, 0.0, 0.0], [0.0, 0.0, 0.0, 0.0, 111.6344486745231, 0.0], [1.5717563738342253, -1.571756373834226, 0.0, 0.0, 0.0, 157.16992951161342]], 'compliance_tensor': [[31.1, -28.0, -0.8, 0.0, 0.0, 0.0], [-28.0, 31.1, -0.8, 0.0, 0.0, 0.0], [-0.8, -0.8, 3.5, 0.0, 0.0, -0.0], [0.0, 0.0, 0.0, 9.0, 0.0, 0.0], [0.0, 0.0, 0.0, 0.0, 9.0, 0.0], [0.0, 0.0, -0.0, 0.0, 0.0, 6.4]], 'warnings': [], 'nsites': 6}",0,67,152,10.2,0.31,175.54
67,mp-1029338,LiV2N3,"{'Li': 1.0, 'V': 2.0, 'N': 3.0}",0.164541978,4.067270399,"{'G_Reuss': 56.0, 'G_VRH': 70.0, 'G_Voigt': 85.0, 'G_Voigt_Reuss_Hill': 70.0, 'K_Reuss': 146.0, 'K_VRH': 148.0, 'K_Voigt': 150.0, 'K_Voigt_Reuss_Hill': 148.0, 'elastic_anisotropy': 2.63, 'elastic_tensor': [[211.0, 123.0, 61.0, 0.0, 0.0, 0.0], [123.0, 239.0, 69.0, 0.0, 0.0, 0.0], [61.0, 69.0, 391.0, 0.0, 0.0, 0.0], [0.0, 0.0, 0.0, 103.0, 0.0, 0.0], [0.0, 0.0, 0.0, 0.0, 102.0, 0.0], [0.0, 0.0, 0.0, 0.0, 0.0, 23.0]], 'homogeneous_poisson': 0.29, 'poisson_ratio': 0.29, 'universal_anisotropy': 2.63, 'elastic_tensor_original': [[210.917148058124, 122.84367825286952, 63.29575104954084, 0.0, 0.0, 0.0], [122.31569664783535, 239.35419433397453, 69.27722693508336, 0.0, 0.0, 0.0], [59.12843124276638, 68.00754836871558, 390.98661207783294, 0.0, 0.0, 0.0], [-0.00022495665553980845, -0.00018188669295799852, -5.286999839577757e-05, 102.74236477286065, 0.0, 0.0], [0.0017298999993179695, -0.0011585365736092674, 0.0002887533788886364, 0.0, 101.76922234277238, 0.0], [1.3820010903774748e-05, 5.3583475938388626e-05, 5.719348807446896e-05, 0.0, 0.0, 22.990093550323607]], 'compliance_tensor': [[6.8, -3.4, -0.5, 0.0, 0.0, 0.0], [-3.4, 6.1, -0.5, 0.0, 0.0, -0.0], [-0.5, -0.5, 2.7, 0.0, 0.0, 0.0], [0.0, 0.0, 0.0, 9.7, 0.0, 0.0], [0.0, 0.0, 0.0, 0.0, 9.8, 0.0], [0.0, -0.0, 0.0, 0.0, 0.0, 43.5]], 'warnings': [], 'nsites': 12}",0,70,148,2.63,0.29,180.6
68,mp-11436,Er(VGa2)2,"{'Er': 1.0, 'V': 2.0, 'Ga': 4.0}",0.139168487,7.980420107,"{'G_Reuss': 70.0, 'G_VRH': 73.0, 'G_Voigt': 76.0, 'G_Voigt_Reuss_Hill': 73.0, 'K_Reuss': 127.0, 'K_VRH': 127.0, 'K_Voigt': 127.0, 'K_Voigt_Reuss_Hill': 127.0, 'elastic_anisotropy': 0.41, 'elastic_tensor': [[228.0, 68.0, 68.0, 0.0, 0.0, 0.0], [68.0, 208.0, 114.0, 0.0, 0.0, 0.0], [68.0, 114.0, 208.0, 0.0, 0.0, 0.0], [0.0, 0.0, 0.0, 111.0, 0.0, 0.0], [0.0, 0.0, 0.0, 0.0, 69.0, 0.0], [0.0, 0.0, 0.0, 0.0, 0.0, 69.0]], 'homogeneous_poisson': 0.26, 'poisson_ratio': 0.26, 'universal_anisotropy': 0.41, 'elastic_tensor_original': [[228.09208982096, 68.36727677084507, 68.36727677084507, 0.0, -1.0400116398754339e-05, 0.0], [68.09730640991279, 208.14734434326212, 113.57507829165746, 0.0, 0.0, 0.0], [68.09730640991279, 113.57507829165746, 208.14734434326212, 0.0, 3.149498655608345e-07, 1.718516100987435e-07], [0.0, 1.1122020808474045, -1.112202080847413, 111.21306558857825, 7.977650067815738e-08, 8.145938345347759e-08], [2.080016264744436e-07, 0.0, 0.0, 0.0, 68.73309577099003, 0.0], [0.0, 0.0, 0.0, 0.0, 0.0, 68.73309577099003]], 'compliance_tensor': [[5.0, -1.1, -1.1, -0.0, -0.0, -0.0], [-1.1, 7.1, -3.5, 0.0, 0.0, -0.0], [-1.1, -3.5, 7.1, 0.0, -0.0, 0.0], [-0.0, 0.0, 0.0, 9.0, -0.0, -0.0], [-0.0, 0.0, -0.0, -0.0, 14.5, 0.0], [-0.0, -0.0, 0.0, -0.0, 0.0, 14.5]], 'warnings': ['Contains a rare earth element'], 'nsites': 7}",0,73,127,0.41,0.26,183.96
69,mp-1578,V3Rh,"{'V': 3.0, 'Rh': 1.0}",0.139621603,7.762255826,"{'G_Reuss': 102.0, 'G_VRH': 105.0, 'G_Voigt': 108.0, 'G_Voigt_Reuss_Hill': 105.0, 'K_Reuss': 217.0, 'K_VRH': 217.0, 'K_Voigt': 217.0, 'K_Voigt_Reuss_Hill': 217.0, 'elastic_anisotropy': 0.32, 'elastic_tensor': [[407.0, 122.0, 122.0, 0.0, 0.0, 0.0], [122.0, 407.0, 122.0, 0.0, 0.0, 0.0], [122.0, 122.0, 407.0, 0.0, 0.0, 0.0], [0.0, 0.0, 0.0, 86.0, 0.0, 0.0], [0.0, 0.0, 0.0, 0.0, 86.0, 0.0], [0.0, 0.0, 0.0, 0.0, 0.0, 86.0]], 'homogeneous_poisson': 0.29, 'poisson_ratio': 0.29, 'universal_anisotropy': 0.32, 'elastic_tensor_original': [[406.6583271639713, 121.57328832109766, 121.57328832109766, 0.0, 0.0, 0.0], [121.57264715944208, 406.6568823858873, 121.57264715944208, 0.0, 0.0, 0.0], [121.57183075127504, 121.57183075127504, 406.6589318052867, 0.0, 0.0, 0.0], [0.0051245189617985755, 0.002785897741692488, 0.0034784101172788524, 85.79072211547701, 0.0, 0.0], [-0.0008486101170267037, -0.0016767416242387126, 0.0005289049248519957, 0.0, 85.79047015888091, 0.0], [0.0041909149266526795, 0.002614422711282107, 0.00421186932020277, 0.0, 0.0, 85.79300192102188]], 'compliance_tensor': [[2.9, -0.7, -0.7, 0.0, 0.0, -0.0], [-0.7, 2.9, -0.7, 0.0, -0.0, 0.0], [-0.7, -0.7, 2.9, -0.0, -0.0, -0.0], [0.0, 0.0, -0.0, 11.7, -0.0, 0.0], [0.0, -0.0, -0.0, -0.0, 11.7, -0.0], [-0.0, 0.0, -0.0, 0.0, -0.0, 11.7]], 'warnings': [], 'nsites': 8}",0,105,217,0.32,0.29,270.9
70,mp-171,VNi3,"{'V': 1.0, 'Ni': 3.0}",0.158042088,8.437749118,"{'G_Reuss': 93.0, 'G_VRH': 101.0, 'G_Voigt': 109.0, 'G_Voigt_Reuss_Hill': 101.0, 'K_Reuss': 213.0, 'K_VRH': 213.0, 'K_Voigt': 213.0, 'K_Voigt_Reuss_Hill': 213.0, 'elastic_anisotropy': 0.86, 'elastic_tensor': [[294.0, 189.0, 161.0, 0.0, 0.0, 0.0], [189.0, 294.0, 161.0, 0.0, 0.0, 0.0], [161.0, 161.0, 310.0, 0.0, 0.0, 0.0], [0.0, 0.0, 0.0, 136.0, 0.0, 0.0], [0.0, 0.0, 0.0, 0.0, 136.0, 0.0], [0.0, 0.0, 0.0, 0.0, 0.0, 143.0]], 'homogeneous_poisson': 0.3, 'poisson_ratio': 0.3, 'universal_anisotropy': 0.86, 'elastic_tensor_original': [[293.6057411528954, 188.74650107354694, 164.08404328918374, 0.0, 0.0, 0.0], [188.77056292020282, 293.6262036668721, 164.10602321406117, 0.0, 0.0, 0.0], [157.66305512046716, 157.66305512046716, 309.7582695392062, 0.0, 0.0, 0.0], [4.0006711244024515e-05, -0.0007321608158106738, -0.0008750409750118284, 135.99429891786622, 0.0, 0.0], [-0.00011853346541244255, -0.00023258692582592234, 0.00041060379084628565, 0.0, 135.9951760155102, 0.0], [-5.1460051850664094e-05, -0.00020094020247415158, 0.0006673106724096725, 0.0, 0.0, 143.05671608984377]], 'compliance_tensor': [[6.4, -3.2, -1.6, -0.0, 0.0, -0.0], [-3.2, 6.4, -1.6, 0.0, -0.0, 0.0], [-1.6, -1.6, 4.9, -0.0, -0.0, 0.0], [-0.0, 0.0, -0.0, 7.4, 0.0, 0.0], [0.0, -0.0, -0.0, 0.0, 7.4, -0.0], [-0.0, 0.0, 0.0, 0.0, -0.0, 7.0]], 'warnings': [], 'nsites': 4}",0,101,213,0.86,0.3,262.6
71,mp-18835,VPO4,"{'V': 1.0, 'P': 1.0, 'O': 4.0}",0.533946514,3.575563662,"{'G_Reuss': 64.0, 'G_VRH': 66.0, 'G_Voigt': 68.0, 'G_Voigt_Reuss_Hill': 66.0, 'K_Reuss': 99.0, 'K_VRH': 106.0, 'K_Voigt': 113.0, 'K_Voigt_Reuss_Hill': 106.0, 'elastic_anisotropy': 0.41, 'elastic_tensor': [[156.0, 44.0, 82.0, 0.0, 0.0, 0.0], [44.0, 160.0, 81.0, 0.0, 0.0, 0.0], [82.0, 81.0, 283.0, 0.0, 0.0, 0.0], [0.0, 0.0, 0.0, 55.0, 0.0, 0.0], [0.0, 0.0, 0.0, 0.0, 64.0, 0.0], [0.0, 0.0, 0.0, 0.0, 0.0, 89.0]], 'homogeneous_poisson': 0.24, 'poisson_ratio': 0.24, 'universal_anisotropy': 0.41, 'elastic_tensor_original': [[283.28467633193384, 82.9549790491218, 83.76107725945816, 0.0, 0.0, 0.0], [78.14643565533908, 159.60441099000172, 44.27496267237335, 0.0, 0.0, 0.0], [80.67638577693329, 44.571913425984064, 155.9442905306838, 0.0, 0.0, 0.0], [-2.1503339476785316e-05, -2.179667339525179e-05, -6.5966630672695494e-06, 88.82822406450492, 0.0, 0.0], [-4.433347028237048e-06, -1.448663948091726e-05, -1.186690494039665e-06, 0.0, 64.03134373770733, 0.0], [-2.5303282533882508e-05, -1.603329194701275e-05, -7.4333076974575154e-06, 0.0, 0.0, 55.19078093216019]], 'compliance_tensor': [[7.8, -1.2, -1.9, -0.0, 0.0, 0.0], [-1.2, 7.5, -1.8, 0.0, 0.0, 0.0], [-1.9, -1.8, 4.6, -0.0, 0.0, 0.0], [-0.0, 0.0, -0.0, 18.1, 0.0, 0.0], [0.0, 0.0, 0.0, 0.0, 15.6, 0.0], [0.0, 0.0, 0.0, 0.0, 0.0, 11.3]], 'warnings': [], 'nsites': 24}",0,66,106,0.41,0.24,163.68
72,mp-18937,V2O3,"{'V': 2.0, 'O': 3.0}",0.542471084,4.643588544,"{'G_Reuss': 80.0, 'G_VRH': 80.0, 'G_Voigt': 81.0, 'G_Voigt_Reuss_Hill': 80.0, 'K_Reuss': 202.0, 'K_VRH': 202.0, 'K_Voigt': 202.0, 'K_Voigt_Reuss_Hill': 202.0, 'elastic_anisotropy': 0.07, 'elastic_tensor': [[308.0, 162.0, 143.0, 8.0, 0.0, 0.0], [162.0, 308.0, 143.0, -8.0, 0.0, 0.0], [143.0, 143.0, 308.0, 0.0, 0.0, 0.0], [8.0, -8.0, 0.0, 86.0, 0.0, 0.0], [0.0, 0.0, 0.0, 0.0, 86.0, 8.0], [0.0, 0.0, 0.0, 0.0, 8.0, 73.0]], 'homogeneous_poisson': 0.32, 'poisson_ratio': 0.32, 'universal_anisotropy': 0.07, 'elastic_tensor_original': [[307.5205158999641, 162.79918709288773, 143.14508681929902, -7.947680369865355, 0.0, 0.0], [162.27896516016324, 307.2498351662707, 142.81521182043852, 7.741712969646064, 0.0, 0.0], [143.21473433361086, 143.21471023533343, 308.0188446037439, 0.0, 0.0, 0.0], [-7.857443624182686, 8.05456219752591, 1.0650476427107487, 85.76237061139356, 0.0, 0.0], [-3.877015288588135e-05, 2.3173450999279853e-05, -0.0004756195020974442, 0.00011843738197863268, 85.75559375498202, -7.938816721712035], [-4.429977880192955e-06, 3.913326957388168e-06, -1.5100079242656656e-06, -2.1700115245496594e-06, -7.309599819769913, 74.39726875814499]], 'compliance_tensor': [[4.922261842484497, -1.9546005813949476, -1.3786972607422079, -0.6224435580600646, -3.167708770356058e-17, 3.553953100244591e-07], [-1.9546005813949472, 4.9222622528596975, -1.3786973182140736, 0.6224435840070144, -4.494143696970994e-08, 3.5539532506131587e-07], [-1.3786972607422072, -1.3786973182140738, 4.52756744655349, 7.885735460523666e-17, -2.001127295009162e-16, -9.954418309312734e-08], [-0.6224435580600645, 0.6224435840070143, 1.0252919789913356e-16, 11.773264521064085, 4.2502440799319423e-07, -8.988287427625153e-08], [2.9828596235123764e-16, -4.4941437211449985e-08, -2.4109881003034854e-16, 4.2502440794942804e-07, 11.773264030288136, -1.2448871161201287], [3.553953073225184e-07, 3.553953277453632e-07, -9.954418308481458e-08, -8.988287387691795e-08, -1.244887116120129, 13.7537252581341]], 'warnings': [], 'nsites': 10}",0,80,202,0.07,0.32,211.2
73,mp-19133,YVO4,"{'Y': 1.0, 'V': 1.0, 'O': 4.0}",0.483312933,4.06988181,"{'G_Reuss': 40.0, 'G_VRH': 47.0, 'G_Voigt': 55.0, 'G_Voigt_Reuss_Hill': 47.0, 'K_Reuss': 123.0, 'K_VRH': 125.0, 'K_Voigt': 127.0, 'K_Voigt_Reuss_Hill': 125.0, 'elastic_anisotropy': 2.0, 'elastic_tensor': [[284.0, 81.0, 81.0, 0.0, 0.0, 0.0], [81.0, 221.0, 45.0, 0.0, 0.0, 0.0], [81.0, 45.0, 221.0, 0.0, 0.0, 0.0], [0.0, 0.0, 0.0, 18.0, 0.0, 0.0], [0.0, 0.0, 0.0, 0.0, 43.0, 0.0], [0.0, 0.0, 0.0, 0.0, 0.0, 43.0]], 'homogeneous_poisson': 0.33, 'poisson_ratio': 0.33, 'universal_anisotropy': 2.0, 'elastic_tensor_original': [[221.3086479014262, 44.89971402075995, 81.60343987644069, 8.73809645393287e-06, -2.6433739272742116e-05, 2.5535989637064083e-06], [44.88419018105708, 221.30729706761161, 81.59525129236096, 8.857796405356598e-06, -4.787998056949514e-07, -1.635899336124417e-06], [80.98773356009718, 80.98773356009718, 284.4195079383593, 0.0, 0.0, 0.0], [0.033017327235749364, -0.016474123610305303, 0.0048120377212247595, 42.61338211205906, 0.0, 0.0], [0.000982180215245262, 0.0006538234766186635, 0.0003874567515777289, 0.0, 42.595494264805616, 0.0], [-0.00029662342037717446, 4.376667950814274e-06, -0.00023485673558505614, 0.0, 0.0, 18.015555669922968]], 'compliance_tensor': [[4.3, -1.3, -1.3, 0.0, -0.0, 0.0], [-1.3, 5.1, -0.6, -0.0, 0.0, 0.0], [-1.3, -0.6, 5.1, -0.0, 0.0, 0.0], [0.0, -0.0, -0.0, 55.5, -0.0, 0.0], [-0.0, 0.0, 0.0, -0.0, 23.5, 0.0], [0.0, 0.0, 0.0, 0.0, 0.0, 23.5]], 'warnings': [], 'nsites': 12}",0,47,125,2,0.33,125.02
74,mp-19142,Mn2V2O7,"{'Mn': 2.0, 'V': 2.0, 'O': 7.0}",0.442776934,3.669235433,"{'G_Reuss': 30.0, 'G_VRH': 32.0, 'G_Voigt': 34.0, 'G_Voigt_Reuss_Hill': 32.0, 'K_Reuss': 93.0, 'K_VRH': 96.0, 'K_Voigt': 99.0, 'K_Voigt_Reuss_Hill': 96.0, 'elastic_anisotropy': 0.72, 'elastic_tensor': [[125.0, 81.0, 80.0, 0.0, 20.0, 0.0], [81.0, 127.0, 82.0, 0.0, 12.0, 0.0], [80.0, 82.0, 158.0, 0.0, -1.0, 0.0], [0.0, 0.0, 0.0, 47.0, 0.0, 5.0], [20.0, 12.0, -1.0, 0.0, 34.0, 0.0], [0.0, 0.0, 0.0, 5.0, 0.0, 36.0]], 'homogeneous_poisson': 0.35, 'poisson_ratio': 0.35, 'universal_anisotropy': 0.72, 'elastic_tensor_original': [[127.03202588027308, 76.30657430852139, 85.15526016958555, -11.03905443323411, 0.0, 0.0], [75.27396908030731, 111.27269613152518, 86.06136540490833, -10.614768731228263, 0.0, 0.0], [88.05284404284343, 88.8364797182072, 157.15970852391018, 1.6320844194319433, 0.0, 0.0], [-11.114339398184994, -10.670959038395067, -0.032521682385230614, 40.794679736250494, 0.0, 0.0], [-0.07276244738048607, -0.04006380522433313, -0.02019401260633062, 0.019159925976892023, 48.26000473259622, -2.231070786346102], [-0.05980061473248603, 0.03414749556220602, -0.0004379699858341961, -0.006890359777139359, -2.272391116502179, 34.568872351910436]], 'compliance_tensor': [[16.9, -6.7, -5.2, 0.0, -7.5, 0.0], [-6.7, 15.1, -4.4, 0.0, -1.8, 0.0], [-5.2, -4.4, 11.2, 0.0, 5.0, 0.0], [0.0, 0.0, 0.0, 21.7, 0.0, -2.9], [-7.5, -1.8, 5.0, 0.0, 35.0, 0.0], [0.0, 0.0, 0.0, -2.9, 0.0, 28.1]], 'warnings': [], 'nsites': 11}",0,32,96,0.72,0.35,86.4
75,mp-22977,CsVCl3,"{'Cs': 1.0, 'V': 1.0, 'Cl': 3.0}",0.222145644,3.266698312,"{'G_Reuss': 3.0, 'G_VRH': 5.0, 'G_Voigt': 7.0, 'G_Voigt_Reuss_Hill': 5.0, 'K_Reuss': 14.0, 'K_VRH': 14.0, 'K_Voigt': 15.0, 'K_Voigt_Reuss_Hill': 14.0, 'elastic_anisotropy': 6.81, 'elastic_tensor': [[24.0, 8.0, 5.0, 0.0, 0.0, 0.0], [8.0, 24.0, 5.0, 0.0, 0.0, 0.0], [5.0, 5.0, 46.0, 0.0, 0.0, 0.0], [0.0, 0.0, 0.0, 1.0, 0.0, 0.0], [0.0, 0.0, 0.0, 0.0, 1.0, 0.0], [0.0, 0.0, 0.0, 0.0, 0.0, 8.0]], 'homogeneous_poisson': 0.34, 'poisson_ratio': 0.34, 'universal_anisotropy': 6.81, 'elastic_tensor_original': [[24.066477145028838, 8.056324727834138, 5.150877905225299, 0.0, 0.0, 0.0], [8.27445761199707, 23.842742752946172, 5.172986625990455, 0.0, 0.0, 0.0], [5.6035633585827105, 5.603565577420789, 45.90874152933565, 0.0, 0.0, 0.0], [-3.4133398665371154e-06, 6.3500108348103305e-06, 1.3266692705880002e-06, 1.409248027039823, 0.0, 0.0], [-1.3600020679167333e-05, -5.556675115751041e-06, -8.230012514094223e-06, 0.0, 1.5767826008807644, 0.0], [0.0006961800953659878, 0.00044013672460986304, 0.0004991067340400862, 0.0, 0.0, 7.3765265882849365]], 'compliance_tensor': [[48.9, -16.5, -3.8, -0.0, 0.0, 0.0], [-16.5, 48.9, -3.8, 0.0, -0.0, 0.0], [-3.8, -3.8, 22.7, 0.0, 0.0, -0.0], [-0.0, 0.0, 0.0, 669.8, 0.0, -0.0], [0.0, -0.0, 0.0, 0.0, 669.8, -0.0], [0.0, 0.0, -0.0, -0.0, 0.0, 131.0]], 'warnings': [], 'nsites': 10}",0,5,14,6.81,0.34,13.4
76,mp-23038,CsVBr3,"{'Cs': 1.0, 'V': 1.0, 'Br': 3.0}",0.208275125,4.132924817,"{'G_Reuss': 3.0, 'G_VRH': 5.0, 'G_Voigt': 6.0, 'G_Voigt_Reuss_Hill': 5.0, 'K_Reuss': 11.0, 'K_VRH': 11.0, 'K_Voigt': 11.0, 'K_Voigt_Reuss_Hill': 11.0, 'elastic_anisotropy': 4.83, 'elastic_tensor': [[21.0, 8.0, 2.0, 0.0, 0.0, 0.0], [8.0, 21.0, 2.0, 0.0, 0.0, 0.0], [2.0, 2.0, 34.0, 0.0, 0.0, 0.0], [0.0, 0.0, 0.0, 2.0, 0.0, 0.0], [0.0, 0.0, 0.0, 0.0, 2.0, 0.0], [0.0, 0.0, 0.0, 0.0, 0.0, 6.0]], 'homogeneous_poisson': 0.31, 'poisson_ratio': 0.31, 'universal_anisotropy': 4.83, 'elastic_tensor_original': [[21.086900098088496, 8.225553516815829, 5.119552058366159, 0.0, 0.0, 0.0], [7.173338502203738, 19.87982181799424, 2.9883609077659483, 0.0, 0.0, 0.0], [0.332138790555988, 0.33213899195623403, 33.706039919170614, 0.0, 0.0, 0.0], [0.007222984054204353, 0.03137371642276674, 0.021993935435323343, 1.7184673118293592, 0.0, 0.0], [-0.0652984194296356, -0.06970697462278558, -0.07957860639529629, 0.0, 1.5549205755812403, 0.0], [-0.04243068692145637, 0.056904500471434395, -0.06739540301108328, 0.0, 0.0, 6.480925388689233]], 'compliance_tensor': [[56.8, -20.9, -2.3, -0.0, 0.0, 0.0], [-20.9, 56.8, -2.3, 0.0, -0.0, 0.0], [-2.3, -2.3, 30.0, 0.0, 0.0, -0.0], [-0.0, 0.0, 0.0, 611.0, 0.0, 0.0], [0.0, -0.0, 0.0, 0.0, 611.0, -0.0], [0.0, 0.0, -0.0, 0.0, -0.0, 155.4]], 'warnings': [], 'nsites': 10}",0,5,11,4.83,0.31,13.1
77,mp-3762,VCu3S4,"{'V': 1.0, 'Cu': 3.0, 'S': 4.0}",0.128397573,3.881407528,"{'G_Reuss': 24.0, 'G_VRH': 25.0, 'G_Voigt': 26.0, 'G_Voigt_Reuss_Hill': 25.0, 'K_Reuss': 39.0, 'K_VRH': 39.0, 'K_Voigt': 39.0, 'K_Voigt_Reuss_Hill': 39.0, 'elastic_anisotropy': 0.47, 'elastic_tensor': [[88.0, 15.0, 15.0, 0.0, 0.0, 0.0], [15.0, 88.0, 15.0, 0.0, 0.0, 0.0], [15.0, 15.0, 88.0, 0.0, 0.0, 0.0], [0.0, 0.0, 0.0, 20.0, 0.0, 0.0], [0.0, 0.0, 0.0, 0.0, 20.0, 0.0], [0.0, 0.0, 0.0, 0.0, 0.0, 20.0]], 'homogeneous_poisson': 0.23, 'poisson_ratio': 0.23, 'universal_anisotropy': 0.47, 'elastic_tensor_original': [[87.77434023431097, 14.707240893787668, 14.707240893787668, 0.0, 0.0, 0.0], [14.70590884420306, 87.77300910298648, 14.70590884420306, 0.0, 0.0, 0.0], [14.709213265664914, 14.709213265664914, 87.77596596712193, 0.0, 0.0, 0.0], [-9.696672969542295e-05, -0.00025189016372955346, -0.0003722302419508823, 19.744756947489655, 0.0, 0.0], [0.0007490704868982457, 0.0009880039755390466, 0.0007953938503418294, 0.0, 19.744589454047446, 0.0], [-0.0018063271741185372, 0.001044351345498334, 6.511404232432154e-05, 0.0, 0.0, 19.744211438468408]], 'compliance_tensor': [[12.0, -1.7, -1.7, 0.0, -0.0, -0.0], [-1.7, 12.0, -1.7, -0.0, 0.0, 0.0], [-1.7, -1.7, 12.0, 0.0, -0.0, 0.0], [0.0, -0.0, 0.0, 50.6, -0.0, -0.0], [-0.0, 0.0, -0.0, -0.0, 50.6, 0.0], [-0.0, 0.0, 0.0, -0.0, 0.0, 50.6]], 'warnings': [], 'nsites': 8}",0,25,39,0.47,0.23,61.5