,mp_id,Formula,Composition,IPF,Density,Elastic_Tensor,E_above_Hull,G_VRH,K_VRH,Elastic_Anisotropy,poisson_ratio,Y_Modulus
117,mp-865494,V2CrRu,"{'V': 2.0, 'Cr': 1.0, 'Ru': 1.0}",0.165817662,8.137760168,"{'G_Reuss': 101.0, 'G_VRH': 106.0, 'G_Voigt': 111.0, 'G_Voigt_Reuss_Hill': 106.0, 'K_Reuss': 243.0, 'K_VRH': 243.0, 'K_Voigt': 243.0, 'K_Voigt_Reuss_Hill': 243.0, 'elastic_anisotropy': 0.48, 'elastic_tensor': [[447.0, 141.0, 141.0, 0.0, 0.0, 0.0], [141.0, 447.0, 141.0, 0.0, 0.0, 0.0], [141.0, 141.0, 447.0, 0.0, 0.0, 0.0], [0.0, 0.0, 0.0, 83.0, 0.0, 0.0], [0.0, 0.0, 0.0, 0.0, 83.0, 0.0], [0.0, 0.0, 0.0, 0.0, 0.0, 83.0]], 'homogeneous_poisson': 0.31, 'poisson_ratio': 0.31, 'universal_anisotropy': 0.48, 'elastic_tensor_original': [[447.62259015002655, 142.8902618652444, 142.8902618652444, 0.0, 0.0, 0.0], [140.15469337500167, 447.65771242241016, 140.15469337500167, 0.0, 0.0, 0.0], [139.1877044292993, 139.1877044292993, 446.96875081685437, 0.0, 0.0, 0.0], [0.005705484253800959, 0.0042638298456219755, 0.004506563359928017, 82.52723655926833, 0.0, 0.0], [0.0005511937442835051, 0.00049291703416956, 0.0005200770544168186, 0.0, 82.52464302400134, 0.0], [9.533007107505088e-05, 0.00011836675491683373, 9.780673958787031e-05, 0.0, 0.0, 82.52467287735693]], 'compliance_tensor': [[2.6, -0.6, -0.6, 0.0, 0.0, -0.0], [-0.6, 2.6, -0.6, -0.0, 0.0, 0.0], [-0.6, -0.6, 2.6, 0.0, -0.0, 0.0], [0.0, -0.0, 0.0, 12.1, -0.0, -0.0], [0.0, 0.0, -0.0, -0.0, 12.1, -0.0], [-0.0, 0.0, 0.0, -0.0, -0.0, 12.1]], 'warnings': [], 'nsites': 4}",0,106,243,0.48,0.31,277.72
118,mp-865499,V2TcOs,"{'V': 2.0, 'Tc': 1.0, 'Os': 1.0}",0.125260222,11.72046033,"{'G_Reuss': 129.0, 'G_VRH': 129.0, 'G_Voigt': 130.0, 'G_Voigt_Reuss_Hill': 129.0, 'K_Reuss': 278.0, 'K_VRH': 278.0, 'K_Voigt': 278.0, 'K_Voigt_Reuss_Hill': 278.0, 'elastic_anisotropy': 0.01, 'elastic_tensor': [[461.0, 186.0, 186.0, 0.0, 0.0, 0.0], [186.0, 461.0, 186.0, 0.0, 0.0, 0.0], [186.0, 186.0, 461.0, 0.0, 0.0, 0.0], [0.0, 0.0, 0.0, 124.0, 0.0, 0.0], [0.0, 0.0, 0.0, 0.0, 124.0, 0.0], [0.0, 0.0, 0.0, 0.0, 0.0, 124.0]], 'homogeneous_poisson': 0.3, 'poisson_ratio': 0.3, 'universal_anisotropy': 0.01, 'elastic_tensor_original': [[462.15356579373025, 187.04770026394715, 187.04796816790497, 0.00018914877544717147, -4.763806343676907e-05, 0.00012611255009144673], [185.04051797335796, 459.81070280928543, 185.04042243423768, 6.908581614904949e-05, -3.555036799815368e-05, 1.438373475121706e-05], [186.01340288077876, 186.01340288077876, 460.3731228341211, 0.0, 0.0, 0.0], [-8.786658313667697e-06, -6.443327207582702e-06, -1.026332357997358e-05, 124.42700408324046, 0.0, 0.0], [1.2833321151207829e-06, -3.1099970422982042e-06, 1.993331439362073e-06, 0.0, 124.42701653656198, 0.0], [-6.899993442302749e-06, -8.743325024414263e-06, -6.036660929472999e-06, 0.0, 0.0, 124.42702184655691]], 'compliance_tensor': [[2.8, -0.8, -0.8, 0.0, -0.0, 0.0], [-0.8, 2.8, -0.8, 0.0, 0.0, -0.0], [-0.8, -0.8, 2.8, -0.0, 0.0, 0.0], [0.0, 0.0, -0.0, 8.0, -0.0, -0.0], [-0.0, 0.0, 0.0, -0.0, 8.0, -0.0], [0.0, -0.0, 0.0, -0.0, -0.0, 8.0]], 'warnings': [], 'nsites': 4}",0,129,278,0.01,0.3,335.4
119,mp-865501,V2TcRu,"{'V': 2.0, 'Tc': 1.0, 'Ru': 1.0}",0.124692373,9.088844927,"{'G_Reuss': 112.0, 'G_VRH': 112.0, 'G_Voigt': 113.0, 'G_Voigt_Reuss_Hill': 112.0, 'K_Reuss': 255.0, 'K_VRH': 255.0, 'K_Voigt': 255.0, 'K_Voigt_Reuss_Hill': 255.0, 'elastic_anisotropy': 0.05, 'elastic_tensor': [[424.0, 170.0, 170.0, 0.0, 0.0, 0.0], [170.0, 424.0, 170.0, 0.0, 0.0, 0.0], [170.0, 170.0, 424.0, 0.0, 0.0, 0.0], [0.0, 0.0, 0.0, 103.0, 0.0, 0.0], [0.0, 0.0, 0.0, 0.0, 103.0, 0.0], [0.0, 0.0, 0.0, 0.0, 0.0, 103.0]], 'homogeneous_poisson': 0.31, 'poisson_ratio': 0.31, 'universal_anisotropy': 0.05, 'elastic_tensor_original': [[420.10316783283156, 172.73593171994767, 172.73593171994767, 0.0, 0.0, 0.0], [169.26435900389802, 426.13588561551353, 169.26435900389802, 0.0, 0.0, 0.0], [169.30233777584573, 169.30233777584573, 426.1630037399294, 0.0, 0.0, 0.0], [0.017032171459549748, 0.027240223007587418, 0.024927850833747715, 103.31713984029726, 0.0, 0.0], [-0.0065991466909856595, -0.007907476034948612, -0.0068187899141836, 0.0, 103.32525004956389, 0.0], [-0.006825123244340534, -0.007047399799551835, -0.008092845942000515, 0.0, 0.0, 103.32524868289791]], 'compliance_tensor': [[3.1, -0.9, -0.9, -0.0, -0.0, 0.0], [-0.9, 3.1, -0.9, 0.0, -0.0, -0.0], [-0.9, -0.9, 3.1, -0.0, 0.0, -0.0], [-0.0, 0.0, -0.0, 9.7, -0.0, -0.0], [-0.0, -0.0, 0.0, -0.0, 9.7, -0.0], [0.0, -0.0, -0.0, -0.0, -0.0, 9.7]], 'warnings': [], 'nsites': 4}",0,112,255,0.05,0.31,293.44
120,mp-865554,Mn2VGe,"{'Mn': 2.0, 'V': 1.0, 'Ge': 1.0}",0.128598881,8.087681198,"{'G_Reuss': 102.0, 'G_VRH': 105.0, 'G_Voigt': 109.0, 'G_Voigt_Reuss_Hill': 105.0, 'K_Reuss': 224.0, 'K_VRH': 224.0, 'K_Voigt': 224.0, 'K_Voigt_Reuss_Hill': 224.0, 'elastic_anisotropy': 0.33, 'elastic_tensor': [[327.0, 173.0, 173.0, 0.0, 0.0, 0.0], [173.0, 327.0, 173.0, 0.0, 0.0, 0.0], [173.0, 173.0, 327.0, 0.0, 0.0, 0.0], [0.0, 0.0, 0.0, 130.0, 0.0, 0.0], [0.0, 0.0, 0.0, 0.0, 130.0, 0.0], [0.0, 0.0, 0.0, 0.0, 0.0, 130.0]], 'homogeneous_poisson': 0.3, 'poisson_ratio': 0.3, 'universal_anisotropy': 0.33, 'elastic_tensor_original': [[327.4679479571338, 172.85129546647002, 172.85129546647002, 0.0, 0.0, 0.0], [172.84157521971107, 327.4587531731011, 172.84157521971107, 0.0, 0.0, 0.0], [172.8359378388167, 172.8359378388167, 327.4530854329232, 0.0, 0.0, 0.0], [-0.00019961340486056425, -0.00015304005484115688, -0.00017062672780862161, 129.6946566714433, 0.0, 0.0], [8.251002956923995e-05, 6.350002277281623e-06, 5.433335280362059e-05, 0.0, 129.69467808478433, 0.0], [-0.00014458338514345917, -0.00014536005208770392, -0.00015643338938768823, 0.0, 0.0, 129.6947001714589]], 'compliance_tensor': [[4.8, -1.7, -1.7, -0.0, -0.0, 0.0], [-1.7, 4.8, -1.7, 0.0, -0.0, -0.0], [-1.7, -1.7, 4.8, -0.0, 0.0, -0.0], [-0.0, 0.0, -0.0, 7.7, -0.0, -0.0], [-0.0, -0.0, 0.0, -0.0, 7.7, -0.0], [0.0, -0.0, -0.0, -0.0, -0.0, 7.7]], 'warnings': [], 'nsites': 4}",0,105,224,0.33,0.3,273
121,mp-866001,AlVRu2,"{'Al': 1.0, 'V': 1.0, 'Ru': 2.0}",0.104671492,8.575394436,"{'G_Reuss': 123.0, 'G_VRH': 123.0, 'G_Voigt': 124.0, 'G_Voigt_Reuss_Hill': 123.0, 'K_Reuss': 235.0, 'K_VRH': 235.0, 'K_Voigt': 235.0, 'K_Voigt_Reuss_Hill': 235.0, 'elastic_anisotropy': 0.04, 'elastic_tensor': [[417.0, 144.0, 144.0, 0.0, 0.0, 0.0], [144.0, 417.0, 144.0, 0.0, 0.0, 0.0], [144.0, 144.0, 417.0, 0.0, 0.0, 0.0], [0.0, 0.0, 0.0, 115.0, 0.0, 0.0], [0.0, 0.0, 0.0, 0.0, 115.0, 0.0], [0.0, 0.0, 0.0, 0.0, 0.0, 115.0]], 'homogeneous_poisson': 0.28, 'poisson_ratio': 0.28, 'universal_anisotropy': 0.04, 'elastic_tensor_original': [[417.9465474272897, 144.50955802821838, 144.50955802821838, 0.0, 0.0, 0.0], [144.4511532384512, 417.89051760063813, 144.4511532384512, 0.0, 0.0, 0.0], [143.09738196422276, 143.09738196422276, 415.92810587931444, 0.0, 0.0, 0.0], [6.179665851155642e-05, 6.046332535345923e-05, 6.005665873976416e-05, 114.84485655823421, 0.0, 0.0], [0.00013314998242558248, 0.00013198998258096361, 0.00013366331569099275, 0.0, 114.84484995156836, 0.0], [0.008566175536013179, 0.0002739832971700646, 0.0018402464237738392, 0.0, 0.0, 114.84344294175413]], 'compliance_tensor': [[2.9, -0.7, -0.7, -0.0, -0.0, -0.0], [-0.7, 2.9, -0.7, -0.0, -0.0, -0.0], [-0.7, -0.7, 2.9, -0.0, -0.0, -0.0], [-0.0, -0.0, -0.0, 8.7, 0.0, 0.0], [-0.0, -0.0, -0.0, 0.0, 8.7, 0.0], [-0.0, -0.0, -0.0, 0.0, 0.0, 8.7]], 'warnings': [], 'nsites': 4}",0,123,235,0.04,0.28,314.88
122,mp-867874,BeVRu2,"{'Be': 1.0, 'V': 1.0, 'Ru': 2.0}",0.10572269,8.766714852,"{'G_Reuss': 86.0, 'G_VRH': 86.0, 'G_Voigt': 87.0, 'G_Voigt_Reuss_Hill': 86.0, 'K_Reuss': 238.0, 'K_VRH': 238.0, 'K_Voigt': 238.0, 'K_Voigt_Reuss_Hill': 238.0, 'elastic_anisotropy': 0.02, 'elastic_tensor': [[345.0, 185.0, 185.0, 0.0, 0.0, 0.0], [185.0, 345.0, 185.0, 0.0, 0.0, 0.0], [185.0, 185.0, 345.0, 0.0, 0.0, 0.0], [0.0, 0.0, 0.0, 91.0, 0.0, 0.0], [0.0, 0.0, 0.0, 0.0, 91.0, 0.0], [0.0, 0.0, 0.0, 0.0, 0.0, 91.0]], 'homogeneous_poisson': 0.34, 'poisson_ratio': 0.34, 'universal_anisotropy': 0.02, 'elastic_tensor_original': [[344.35392045744106, 184.8261713484592, 184.8261713484592, 0.0, 0.0, 0.0], [184.63872752837267, 344.9160455137232, 184.63872752837267, 0.0, 0.0, 0.0], [184.35345588426574, 184.35345588426574, 344.6363801591408, 0.0, 0.0, 0.0], [-7.298996884686157e-05, -7.585999221266048e-05, -8.504332167823473e-05, 90.9194776181977, 0.0, 0.0], [0.023092325414704677, 0.023480459377811447, 0.02277653332346585, 0.0, 90.90565525119678, 0.0], [-0.024822701202061592, -0.02519611874922246, -0.025127178567903106, 0.0, 0.0, 90.91329517385849]], 'compliance_tensor': [[4.6, -1.6, -1.6, -0.0, 0.0, -0.0], [-1.6, 4.6, -1.6, -0.0, -0.0, 0.0], [-1.6, -1.6, 4.6, 0.0, -0.0, -0.0], [-0.0, -0.0, 0.0, 11.0, -0.0, -0.0], [0.0, -0.0, -0.0, -0.0, 11.0, -0.0], [-0.0, 0.0, -0.0, -0.0, -0.0, 11.0]], 'warnings': [], 'nsites': 4}",0,86,238,0.02,0.34,230.48
123,mp-8689,V4GeSe8,"{'V': 4.0, 'Ge': 1.0, 'Se': 8.0}",0.166025564,5.606234804,"{'G_Reuss': 35.0, 'G_VRH': 36.0, 'G_Voigt': 36.0, 'G_Voigt_Reuss_Hill': 36.0, 'K_Reuss': 55.0, 'K_VRH': 55.0, 'K_Voigt': 55.0, 'K_Voigt_Reuss_Hill': 55.0, 'elastic_anisotropy': 0.1, 'elastic_tensor': [[95.0, 35.0, 35.0, 0.0, 0.0, 0.0], [35.0, 95.0, 35.0, 0.0, 0.0, 0.0], [35.0, 35.0, 95.0, 0.0, 0.0, 0.0], [0.0, 0.0, 0.0, 40.0, 0.0, 0.0], [0.0, 0.0, 0.0, 0.0, 40.0, 0.0], [0.0, 0.0, 0.0, 0.0, 0.0, 40.0]], 'homogeneous_poisson': 0.23, 'poisson_ratio': 0.23, 'universal_anisotropy': 0.1, 'elastic_tensor_original': [[94.55691029494747, 35.33554806240563, 35.33554806240563, 0.0, 0.0, 0.0], [35.00134365500188, 95.16300279187637, 35.1428919932317, -0.017504838259761714, -0.013631736337359904, 0.00875377572601832], [35.14591177338387, 35.32521344397142, 95.484333401711, -0.01647931142966881, -0.028973721455254262, 0.00359936875178213], [0.2893102517194314, 0.42400841810644235, 0.34960096222747433, 39.8878976478521, -0.006374967264080791, -0.057241538627950984], [0.1763151920476946, 0.3953285837560476, 0.29414509803388766, -0.08525508590085214, 40.22956791518958, -0.040024118011844356], [-0.12700815164541623, -0.02467628521517526, -0.07635488707973626, -0.07234961127678594, -0.008836595448565238, 40.060918557868575]], 'compliance_tensor': [[13.2, -3.6, -3.6, -0.0, 0.0, -0.0], [-3.6, 13.2, -3.6, -0.0, -0.0, 0.0], [-3.6, -3.6, 13.2, 0.0, -0.0, -0.0], [-0.0, -0.0, 0.0, 25.0, -0.0, -0.0], [0.0, -0.0, -0.0, -0.0, 25.0, -0.0], [-0.0, 0.0, -0.0, -0.0, -0.0, 25.0]], 'warnings': [], 'nsites': 13}",0,36,55,0.1,0.23,88.56
124,mp-9029,Ca3VN3,"{'Ca': 3.0, 'V': 1.0, 'N': 3.0}",0.21003985,3.133701536,"{'G_Reuss': 50.0, 'G_VRH': 50.0, 'G_Voigt': 50.0, 'G_Voigt_Reuss_Hill': 50.0, 'K_Reuss': 87.0, 'K_VRH': 87.0, 'K_Voigt': 87.0, 'K_Voigt_Reuss_Hill': 87.0, 'elastic_anisotropy': 0.04, 'elastic_tensor': [[156.0, 64.0, 52.0, 0.0, 0.0, 0.0], [64.0, 146.0, 49.0, 0.0, 0.0, 0.0], [52.0, 49.0, 157.0, 0.0, 0.0, 0.0], [0.0, 0.0, 0.0, 53.0, 0.0, 0.0], [0.0, 0.0, 0.0, 0.0, 48.0, 0.0], [0.0, 0.0, 0.0, 0.0, 0.0, 53.0]], 'homogeneous_poisson': 0.26, 'poisson_ratio': 0.26, 'universal_anisotropy': 0.04, 'elastic_tensor_original': [[155.6821577436722, 63.358230752238796, 51.23510553489441, 0.0, 0.0, 0.0], [64.21479027710727, 146.03874546894588, 48.29206802939236, 0.0, 0.0, 0.0], [51.8071646528424, 48.92671057856029, 157.04849990445348, 0.0, 0.0, 0.0], [0.00010885313598374101, -0.00045391341401918126, 9.317005451277002e-05, 52.61278351835946, 0.0, 0.0], [0.0003012628232640718, 0.000562109512192857, 0.0008159428501100292, 0.0, 47.73911454450378, 0.0], [-0.0022313244055765296, -0.002216724736912103, -0.00196087823833226, 0.0, 0.0, 53.12121971271747]], 'compliance_tensor': [[8.2, -3.0, -1.8, 0.0, 0.0, 0.0], [-3.0, 8.7, -1.7, 0.0, 0.0, 0.0], [-1.8, -1.7, 7.5, 0.0, 0.0, -0.0], [0.0, 0.0, 0.0, 19.0, 0.0, 0.0], [0.0, 0.0, 0.0, 0.0, 20.9, 0.0], [0.0, 0.0, -0.0, 0.0, 0.0, 18.8]], 'warnings': [], 'nsites': 14}",0,50,87,0.04,0.26,126
125,mp-9957,V2GeC,"{'V': 2.0, 'Ge': 1.0, 'C': 1.0}",0.124563778,6.470529407,"{'G_Reuss': 98.0, 'G_VRH': 101.0, 'G_Voigt': 105.0, 'G_Voigt_Reuss_Hill': 101.0, 'K_Reuss': 180.0, 'K_VRH': 180.0, 'K_Voigt': 180.0, 'K_Voigt_Reuss_Hill': 180.0, 'elastic_anisotropy': 0.38, 'elastic_tensor': [[290.0, 119.0, 130.0, 0.0, 0.0, 0.0], [119.0, 290.0, 130.0, 0.0, 0.0, 0.0], [130.0, 130.0, 277.0, 0.0, 0.0, 0.0], [0.0, 0.0, 0.0, 140.0, 0.0, 0.0], [0.0, 0.0, 0.0, 0.0, 140.0, 0.0], [0.0, 0.0, 0.0, 0.0, 0.0, 85.0]], 'homogeneous_poisson': 0.26, 'poisson_ratio': 0.26, 'universal_anisotropy': 0.38, 'elastic_tensor_original': [[289.873690857907, 118.43315777776544, 129.03997613944603, 0.0, 0.0, 0.0], [119.77312844494625, 289.3433800400873, 129.68506371890828, 0.0, 0.0, 0.0], [131.12564246429338, 131.12555125458115, 277.3847471351625, 0.0, 0.0, 0.0], [-0.00012904665723771603, -1.1163332514101417e-05, -0.0004246199689773154, 140.46765239767456, 0.0, 0.0], [0.0001248197499559831, -0.00018563296145968989, -0.00022544288170811745, 0.0, 140.20669908148923, 0.0], [-0.00021571956871861114, -0.0004884756900716619, -0.00014330638015885543, 0.0, 0.0, 85.57642917631138]], 'compliance_tensor': [[4.7, -1.2, -1.6, -0.0, 0.0, -0.0], [-1.2, 4.7, -1.6, -0.0, 0.0, -0.0], [-1.6, -1.6, 5.1, 0.0, -0.0, 0.0], [-0.0, -0.0, 0.0, 7.1, -0.0, 0.0], [0.0, 0.0, -0.0, -0.0, 7.1, 0.0], [-0.0, -0.0, 0.0, -0.0, 0.0, 11.7]], 'warnings': [], 'nsites': 8}",0,101,180,0.38,0.26,254.52
126,mp-1025165,Zr(VGa2)2,"{'Zr': 1.0, 'V': 2.0, 'Ga': 4.0}",0.127229998,7.144804649,"{'G_Reuss': 83.0, 'G_VRH': 86.0, 'G_Voigt': 89.0, 'G_Voigt_Reuss_Hill': 86.0, 'K_Reuss': 127.0, 'K_VRH': 127.0, 'K_Voigt': 128.0, 'K_Voigt_Reuss_Hill': 127.0, 'elastic_anisotropy': 0.37, 'elastic_tensor': [[237.0, 62.0, 62.0, 0.0, 0.0, 0.0], [62.0, 220.0, 112.0, 0.0, 0.0, 0.0], [62.0, 112.0, 220.0, 0.0, 0.0, 0.0], [0.0, 0.0, 0.0, 123.0, 0.0, 0.0], [0.0, 0.0, 0.0, 0.0, 89.0, 0.0], [0.0, 0.0, 0.0, 0.0, 0.0, 89.0]], 'homogeneous_poisson': 0.22, 'poisson_ratio': 0.22, 'universal_anisotropy': 0.37, 'elastic_tensor_original': [[236.93253377315654, 68.89910699405813, 68.89910699405813, 0.0, 1.0599950214059043e-05, 0.0], [54.43907901852173, 220.0192954232435, 112.2399079073069, 0.0, 1.719987040434196e-05, 0.0], [54.43907901852444, 112.23990790730689, 220.01929542324345, 0.0, 3.424399512403276e-05, 2.6924679669995857e-07], [0.0, 1.2278029844517846, -1.227802984451798, 122.77599758025634, -7.048976618206099e-08, 1.902089187534762e-05], [2.756168138684103e-05, 0.0, 0.0, 0.0, 88.54257392632272, 0.0], [0.0, 0.0, 0.0, 0.0, 0.0, 88.54257392632265]], 'compliance_tensor': [[4.7, -0.9, -0.9, -0.0, -0.0, -0.0], [-0.9, 6.3, -3.0, 0.0, 0.0, -0.0], [-0.9, -3.0, 6.3, -0.0, -0.0, 0.0], [-0.0, 0.0, -0.0, 8.1, -0.0, -0.0], [-0.0, 0.0, -0.0, -0.0, 11.3, 0.0], [-0.0, -0.0, 0.0, -0.0, 0.0, 11.3]], 'warnings': [], 'nsites': 7}",0,86,127,0.37,0.22,209.84
127,mp-21235,Mn2VGa,"{'Mn': 2.0, 'V': 1.0, 'Ga': 1.0}",0.123294176,7.74963821,"{'G_Reuss': 74.0, 'G_VRH': 83.0, 'G_Voigt': 91.0, 'G_Voigt_Reuss_Hill': 83.0, 'K_Reuss': 187.0, 'K_VRH': 187.0, 'K_Voigt': 187.0, 'K_Voigt_Reuss_Hill': 187.0, 'elastic_anisotropy': 1.15, 'elastic_tensor': [[249.0, 155.0, 155.0, 0.0, 0.0, 0.0], [155.0, 249.0, 155.0, 0.0, 0.0, 0.0], [155.0, 155.0, 249.0, 0.0, 0.0, 0.0], [0.0, 0.0, 0.0, 121.0, 0.0, 0.0], [0.0, 0.0, 0.0, 0.0, 121.0, 0.0], [0.0, 0.0, 0.0, 0.0, 0.0, 121.0]], 'homogeneous_poisson': 0.31, 'poisson_ratio': 0.31, 'universal_anisotropy': 1.15, 'elastic_tensor_original': [[249.14131119026047, 155.40336631461983, 155.40336631461983, 0.0, 0.0, 0.0], [155.40392833201489, 249.14104971437018, 155.40392833201489, 0.0, 0.0, 0.0], [155.3988086670069, 155.3988086670069, 249.14290778533427, 0.0, 0.0, 0.0], [9.66333892059616e-06, 1.141000659812355e-05, -3.130001810276705e-06, 120.5820774440076, 0.0, 0.0], [0.00011035339713804203, 8.85800512142064e-05, 0.00011096673082428612, 0.0, 120.55998569790144, 0.0], [-0.0056948599592805856, 0.002570951486455228, 0.0027182882383115043, 0.0, 0.0, 120.5381614252832]], 'compliance_tensor': [[7.7, -3.0, -3.0, 0.0, 0.0, 0.0], [-3.0, 7.7, -3.0, 0.0, 0.0, 0.0], [-3.0, -3.0, 7.7, 0.0, 0.0, 0.0], [0.0, 0.0, 0.0, 8.3, 0.0, 0.0], [0.0, 0.0, 0.0, 0.0, 8.3, 0.0], [0.0, 0.0, 0.0, 0.0, 0.0, 8.3]], 'warnings': [], 'nsites': 4}",0,83,187,1.15,0.31,217.46
128,mp-23319,RbVCl3,"{'Rb': 1.0, 'V': 1.0, 'Cl': 3.0}",0.196173511,2.9189442,"{'G_Reuss': -3.0, 'G_VRH': 2.0, 'G_Voigt': 7.0, 'G_Voigt_Reuss_Hill': 2.0, 'K_Reuss': 16.0, 'K_VRH': 16.0, 'K_Voigt': 16.0, 'K_Voigt_Reuss_Hill': 16.0, 'elastic_anisotropy': -16.78, 'elastic_tensor': [[27.0, 9.0, 7.0, 0.0, 0.0, 0.0], [9.0, 27.0, 7.0, 0.0, 0.0, 0.0], [7.0, 7.0, 48.0, 0.0, 0.0, 0.0], [0.0, 0.0, 0.0, -1.0, 0.0, 0.0], [0.0, 0.0, 0.0, 0.0, -1.0, 0.0], [0.0, 0.0, 0.0, 0.0, 0.0, 9.0]], 'homogeneous_poisson': 0.44, 'poisson_ratio': 0.44, 'universal_anisotropy': -16.78, 'elastic_tensor_original': [[27.14584066454554, 8.673149849725586, 6.219330748165309, 0.0, 0.0, 0.0], [9.399523519242173, 27.10921348744698, 6.481056064493172, 0.0, 0.0, 0.0], [6.670411375308458, 6.670408913683332, 48.25817302473168, 0.0, 0.0, 0.0], [5.039999413708182e-06, 4.333332829227926e-06, 3.2833329515785288e-06, -1.0717915353275604, 0.0, 0.0], [-2.236677918429601e-06, -4.69331118739427e-06, -2.8199921634091823e-06, 0.0, -0.8664147355674037, 0.0], [2.7333317077295166e-05, -1.3329993599784562e-05, 6.586662069368925e-06, 0.0, 0.0, 8.4099315197922]], 'compliance_tensor': [[43.2, -14.1, -3.9, -0.0, -0.0, -0.0], [-14.1, 43.2, -3.9, -0.0, -0.0, -0.0], [-3.9, -3.9, 21.8, 0.0, 0.0, 0.0], [-0.0, -0.0, 0.0, -1031.9, 0.0, 0.0], [-0.0, -0.0, 0.0, 0.0, -1031.9, -0.0], [-0.0, -0.0, 0.0, 0.0, -0.0, 114.6]], 'warnings': ['Elastic tensor has a negative eigenvalue', 'One or more K, G below 2 GPa'], 'nsites': 10}",0,2,16,-16.78,0.44,5.76
129,mp-27769,V3AsC,"{'V': 3.0, 'As': 1.0, 'C': 1.0}",0.118504468,6.531323873,"{'G_Reuss': 69.0, 'G_VRH': 79.0, 'G_Voigt': 90.0, 'G_Voigt_Reuss_Hill': 79.0, 'K_Reuss': 187.0, 'K_VRH': 191.0, 'K_Voigt': 195.0, 'K_Voigt_Reuss_Hill': 191.0, 'elastic_anisotropy': 1.56, 'elastic_tensor': [[378.0, 147.0, 133.0, 0.0, 0.0, 0.0], [147.0, 215.0, 161.0, 0.0, 0.0, 0.0], [133.0, 161.0, 278.0, 0.0, 0.0, 0.0], [0.0, 0.0, 0.0, 141.0, 0.0, 0.0], [0.0, 0.0, 0.0, 0.0, 118.0, 0.0], [0.0, 0.0, 0.0, 0.0, 0.0, 46.0]], 'homogeneous_poisson': 0.32, 'poisson_ratio': 0.32, 'universal_anisotropy': 1.56, 'elastic_tensor_original': [[377.647246182038, 151.23760588251469, 133.81444913357234, 0.0, 0.0, 0.0], [142.61788023693126, 215.178288728778, 151.38977944606947, 0.0, 0.0, 0.0], [132.91101773579624, 169.6976483012809, 278.03193749836436, 0.0, 0.0, 0.0], [0.0, 0.0, 2.7858222974176563e-07, 141.38084442188466, 0.0, 0.0], [0.0, 0.0, 0.0, 0.0, 118.49290325848125, -2.000007878283121e-07], [0.0, 0.0, 0.0, 0.0, 0.0, 45.775814232777726]], 'compliance_tensor': [[3.652824688801668, -2.0853635795983005, -0.5479898200960246, -4.109079734383492e-09, 0.0, 0.0], [-2.0853635795982997, 9.355400479203741, -4.401799885071699, 1.843423713888214e-08, 0.0, 0.0], [-0.5479898200960245, -4.401799885071699, 6.40128877852741, -1.7049274406595134e-09, 0.0, 0.0], [-4.109079734383492e-09, 1.8434237138882143e-08, -1.7049274406595154e-09, 7.073093983057353, 0.0, 0.0], [0.0, 0.0, 0.0, 0.0, 8.439323980598175, 2.152269788819729e-08], [0.0, 0.0, 0.0, 0.0, 2.152269788819729e-08, 21.845597216792942]], 'warnings': [], 'nsites': 10}",0,79,191,1.56,0.32,208.56