,mp_id,Formula,Composition,IPF,Density,Elastic_Tensor,E_above_Hull,G_VRH,K_VRH,Elastic_Anisotropy,poisson_ratio,Y_Modulus
78,mp-571664,Zr2Rh,"{'Zr': 2.0, 'Rh': 1.0}",0.116481514,7.817082939,"{'G_Reuss': 4.0, 'G_VRH': 9.0, 'G_Voigt': 14.0, 'G_Voigt_Reuss_Hill': 9.0, 'K_Reuss': 124.0, 'K_VRH': 126.0, 'K_Voigt': 128.0, 'K_Voigt_Reuss_Hill': 126.0, 'elastic_anisotropy': 13.34, 'elastic_tensor': [[155.0, 93.0, 93.0, 0.0, 0.0, 0.0], [93.0, 158.0, 155.0, 0.0, 0.0, 0.0], [93.0, 155.0, 158.0, 0.0, 0.0, 0.0], [0.0, 0.0, 0.0, 15.0, 0.0, 0.0], [0.0, 0.0, 0.0, 0.0, 6.0, 0.0], [0.0, 0.0, 0.0, 0.0, 0.0, 6.0]], 'homogeneous_poisson': 0.47, 'poisson_ratio': 0.47, 'universal_anisotropy': 13.34, 'elastic_tensor_original': [[157.52336027616514, 155.24886413291298, 92.87580633082621, 0.0, 0.0, 0.0], [155.26359761588316, 157.5663273314836, 92.93332167605175, 0.0, 0.0, 0.0], [92.9652218850851, 92.9652218850851, 155.2425802751441, 0.0, 0.0, 0.0], [0.05186489132603748, 0.05768522745997386, 0.025830973889413467, 5.6126311683730155, 0.0, 0.0], [0.0003705270571569906, -0.01991347431974599, -0.019911577651079832, 0.0, 5.652101749970271, 0.0], [-0.002353459420004876, -0.002186502558013131, -0.002347932746872014, 0.0, 0.0, 15.035336400002649]], 'compliance_tensor': [[10.0, -3.0, -3.0, 0.0, -0.0, 0.0], [-3.0, 221.0, -216.0, -0.0, 0.0, 0.0], [-3.0, -216.0, 221.0, 0.0, -0.0, -0.0], [0.0, -0.0, 0.0, 66.5, -0.0, -0.0], [-0.0, 0.0, -0.0, -0.0, 177.5, 0.0], [0.0, 0.0, -0.0, -0.0, 0.0, 177.5]], 'warnings': ['c11 and c23 are within 5% or c23 is greater than c11'], 'nsites': 6}",0,9,126,13.34,0.47,26.46
79,mp-605,ZrTe5,"{'Zr': 1.0, 'Te': 5.0}",0.215718288,5.444927829,"{'G_Reuss': -2.0, 'G_VRH': 6.0, 'G_Voigt': 13.0, 'G_Voigt_Reuss_Hill': 6.0, 'K_Reuss': 3.0, 'K_VRH': 11.0, 'K_Voigt': 19.0, 'K_Voigt_Reuss_Hill': 11.0, 'elastic_anisotropy': -31.17, 'elastic_tensor': [[59.0, 1.0, 19.0, 0.0, 0.0, 0.0], [1.0, 4.0, -0.0, 0.0, 0.0, 0.0], [19.0, -0.0, 69.0, 0.0, 0.0, 0.0], [0.0, 0.0, 0.0, 1.0, 0.0, 0.0], [0.0, 0.0, 0.0, 0.0, 29.0, 0.0], [0.0, 0.0, 0.0, 0.0, 0.0, -0.0]], 'homogeneous_poisson': 0.29, 'poisson_ratio': 0.29, 'universal_anisotropy': -31.17, 'elastic_tensor_original': [[69.36763067366458, -0.18173735299841592, 19.187068207804604, 0.0, 0.0, 0.0], [0.00073725880602843, 3.7113482993792757, 1.1052217493279453, 0.0, 0.0, 0.0], [19.460764268513365, 1.1603664619726681, 59.1982582558155, 0.0, 0.0, 0.0], [-0.0240700862965619, 0.02488388473874759, -0.029143768173437928, -0.2932436265877898, 0.0, 0.0], [0.005226803839099909, 0.024566231952796592, 0.008383922239155272, 0.0, 28.697590942906377, 0.0], [-0.0014022551875110573, -0.002408599064894108, -0.0023078953146926243, 0.0, 0.0, 1.4905898204623198]], 'compliance_tensor': [[18.7, -5.8, -5.2, -0.0, 0.0, 0.0], [-5.8, 271.3, 2.0, 0.0, 0.0, 0.0], [-5.2, 2.0, 15.9, -0.0, 0.0, 0.0], [-0.0, 0.0, -0.0, 670.9, 0.0, 0.0], [0.0, 0.0, 0.0, 0.0, 34.8, 0.0], [-0.0, -0.0, -0.0, -0.0, -0.0, -3410.1]], 'warnings': ['Elastic tensor has a negative eigenvalue', 'One or more K, G below 2 GPa'], 'nsites': 12}",0,6,11,-31.17,0.29,15.48
80,mp-628,Zr2Co,"{'Zr': 2.0, 'Co': 1.0}",0.129319477,7.170770896,"{'G_Reuss': 16.0, 'G_VRH': 20.0, 'G_Voigt': 23.0, 'G_Voigt_Reuss_Hill': 20.0, 'K_Reuss': 101.0, 'K_VRH': 107.0, 'K_Voigt': 113.0, 'K_Voigt_Reuss_Hill': 107.0, 'elastic_anisotropy': 2.17, 'elastic_tensor': [[114.0, 76.0, 76.0, 0.0, 0.0, 0.0], [76.0, 158.0, 144.0, 0.0, 0.0, 0.0], [76.0, 144.0, 158.0, 0.0, 0.0, 0.0], [0.0, 0.0, 0.0, 26.0, 0.0, 0.0], [0.0, 0.0, 0.0, 0.0, 22.0, 0.0], [0.0, 0.0, 0.0, 0.0, 0.0, 22.0]], 'homogeneous_poisson': 0.41, 'poisson_ratio': 0.41, 'universal_anisotropy': 2.17, 'elastic_tensor_original': [[157.63864161606912, 144.17609016583927, 76.32456365049244, 0.0, 0.0, 0.0], [144.1993145502622, 157.66258063202648, 76.35081820923665, 0.0, 0.0, 0.0], [75.38871864536263, 75.38871864536263, 113.83174826103455, 0.0, 0.0, 0.0], [-0.07298246818367894, -0.07262830139641967, -0.07231569462331265, 22.109821965005203, 0.0, 0.0], [-0.0001182600402668735, -0.00010163336793886177, -0.00014587671633758663, 0.0, 22.109460134882003, 0.0], [-5.323669019828925e-05, -0.00011184671610590455, 9.238670750376969e-05, 0.0, 0.0, 25.975498258539293]], 'compliance_tensor': [[13.2, -3.3, -3.3, 0.0, -0.0, 0.0], [-3.3, 39.6, -34.6, -0.0, -0.0, -0.0], [-3.3, -34.6, 39.6, 0.0, 0.0, 0.0], [0.0, -0.0, 0.0, 38.5, 0.0, 0.0], [-0.0, -0.0, 0.0, 0.0, 45.2, 0.0], [0.0, -0.0, 0.0, 0.0, 0.0, 45.2]], 'warnings': ['c11 and c23 are within 5% or c23 is greater than c11'], 'nsites': 6}",0,20,107,2.17,0.41,56.4
81,mp-669917,ZrRh,"{'Zr': 1.0, 'Rh': 1.0}",0.118681471,8.702258123,"{'G_Reuss': 47.0, 'G_VRH': 48.0, 'G_Voigt': 49.0, 'G_Voigt_Reuss_Hill': 48.0, 'K_Reuss': 154.0, 'K_VRH': 156.0, 'K_Voigt': 159.0, 'K_Voigt_Reuss_Hill': 156.0, 'elastic_anisotropy': 0.3, 'elastic_tensor': [[227.0, 133.0, 136.0, 0.0, 0.0, 0.0], [133.0, 176.0, 122.0, 0.0, 0.0, 0.0], [136.0, 122.0, 242.0, 0.0, 0.0, 0.0], [0.0, 0.0, 0.0, 64.0, 0.0, 0.0], [0.0, 0.0, 0.0, 0.0, 48.0, 0.0], [0.0, 0.0, 0.0, 0.0, 0.0, 50.0]], 'homogeneous_poisson': 0.36, 'poisson_ratio': 0.36, 'universal_anisotropy': 0.3, 'elastic_tensor_original': [[241.93932987823172, 136.85525100458315, 123.14440670307373, 0.0, 0.0, 0.0], [136.11082207756732, 227.14362974328947, 133.48281716287872, 0.0, 0.0, 0.0], [121.6681848813502, 132.8468705252145, 175.67935315008154, 0.0, 0.0, 0.0], [0.0001508601563693944, 0.00016533000600702814, 0.0001361936452436251, 49.80803153069976, 0.0, 0.0], [0.0004578138097161731, 0.0007238640865591821, 0.0006637273573160071, 0.0, 63.80926120747695, 0.0], [0.0003389270273053921, -0.00033184368643509893, -0.0003155103357221829, 0.0, 0.0, 47.54585411165486]], 'compliance_tensor': [[8.8, -4.9, -2.4, -0.0, 0.0, 0.0], [-4.9, 11.6, -3.1, -0.0, 0.0, 0.0], [-2.4, -3.1, 7.1, 0.0, 0.0, 0.0], [-0.0, -0.0, 0.0, 15.7, 0.0, 0.0], [0.0, 0.0, 0.0, 0.0, 21.0, 0.0], [0.0, 0.0, 0.0, 0.0, 0.0, 20.1]], 'warnings': [], 'nsites': 8}",0,48,156,0.3,0.36,130.56
82,mp-675,ZrW2,"{'Zr': 1.0, 'W': 2.0}",0.114255257,13.52058797,"{'G_Reuss': 86.0, 'G_VRH': 87.0, 'G_Voigt': 87.0, 'G_Voigt_Reuss_Hill': 87.0, 'K_Reuss': 215.0, 'K_VRH': 215.0, 'K_Voigt': 215.0, 'K_Voigt_Reuss_Hill': 215.0, 'elastic_anisotropy': 0.06, 'elastic_tensor': [[316.0, 165.0, 165.0, 0.0, 0.0, 0.0], [165.0, 316.0, 165.0, 0.0, 0.0, 0.0], [165.0, 165.0, 316.0, 0.0, 0.0, 0.0], [0.0, 0.0, 0.0, 95.0, 0.0, 0.0], [0.0, 0.0, 0.0, 0.0, 95.0, 0.0], [0.0, 0.0, 0.0, 0.0, 0.0, 95.0]], 'homogeneous_poisson': 0.32, 'poisson_ratio': 0.32, 'universal_anisotropy': 0.06, 'elastic_tensor_original': [[316.1373569768893, 164.20856712752544, 164.20856712752544, 0.0, 0.0, 0.0], [165.55994384397948, 316.4495683773813, 165.55994384397948, 0.0, 0.0, 0.0], [164.21089745476493, 164.21089745476493, 316.13937209581053, 0.0, 0.0, 0.0], [-4.976667401868623e-06, 4.32333397527232e-06, 2.030000300266851e-06, 95.05356354736335, 0.0, 0.0], [-1.3143335274331284e-05, -4.80666737694219e-06, -5.273334112398637e-06, 0.0, 95.05357980736572, 0.0], [2.433333700162602e-07, -7.020001037154198e-06, 8.07333452645388e-06, 0.0, 0.0, 95.05356112736301]], 'compliance_tensor': [[4.9, -1.7, -1.7, -0.0, 0.0, 0.0], [-1.7, 4.9, -1.7, 0.0, -0.0, 0.0], [-1.7, -1.7, 4.9, 0.0, 0.0, -0.0], [-0.0, 0.0, 0.0, 10.5, -0.0, -0.0], [0.0, -0.0, 0.0, -0.0, 10.5, -0.0], [0.0, 0.0, -0.0, -0.0, -0.0, 10.5]], 'warnings': [], 'nsites': 6}",0,87,215,0.06,0.32,229.68
83,mp-697179,ZrH,"{'Zr': 1.0, 'H': 1.0}",0.100850804,5.797300799,"{'G_Reuss': 11.0, 'G_VRH': 24.0, 'G_Voigt': 38.0, 'G_Voigt_Reuss_Hill': 24.0, 'K_Reuss': 113.0, 'K_VRH': 114.0, 'K_Voigt': 115.0, 'K_Voigt_Reuss_Hill': 114.0, 'elastic_anisotropy': 13.02, 'elastic_tensor': [[178.0, 60.0, 94.0, 0.0, 0.0, 0.0], [60.0, 178.0, 94.0, 0.0, 0.0, 0.0], [94.0, 94.0, 183.0, 0.0, 0.0, 0.0], [0.0, 0.0, 0.0, 45.0, 0.0, 0.0], [0.0, 0.0, 0.0, 0.0, 45.0, 0.0], [0.0, 0.0, 0.0, 0.0, 0.0, 3.0]], 'homogeneous_poisson': 0.4, 'poisson_ratio': 0.4, 'universal_anisotropy': 13.02, 'elastic_tensor_original': [[177.8349313485923, 59.8258381239363, 94.1360739168531, 0.0, 0.0, 0.0], [59.51036127220303, 178.1635224606354, 94.1416358280848, 0.0, 0.0, 0.0], [93.54196851113849, 93.54196851113849, 183.30569624649198, 0.0, 0.0, 0.0], [-1.8433328059324049e-06, 2.013332756708121e-06, 3.6666656468439994e-08, 45.204033287750924, 0.0, 0.0], [-3.9333321962542554e-07, -6.066664936768162e-07, 1.666666219069238e-08, 0.0, 45.2040292177521, 0.0], [2.009666138746801e-05, 1.3783329713114184e-05, 1.853666179813953e-05, 0.0, 0.0, 2.594957411787789]], 'compliance_tensor': [[7.8, -0.7, -3.6, 0.0, -0.0, 0.0], [-0.7, 7.8, -3.6, -0.0, 0.0, -0.0], [-3.6, -3.6, 9.2, -0.0, -0.0, -0.0], [0.0, -0.0, -0.0, 22.1, -0.0, 0.0], [-0.0, 0.0, -0.0, -0.0, 22.1, -0.0], [0.0, -0.0, -0.0, 0.0, -0.0, 385.4]], 'warnings': [], 'nsites': 4}",0.2473925,24,114,13.02,0.4,67.2
84,mp-755328,ZrSn2,"{'Zr': 1.0, 'Sn': 2.0}",0.107255262,7.851905784,"{'G_Reuss': 52.0, 'G_VRH': 55.0, 'G_Voigt': 58.0, 'G_Voigt_Reuss_Hill': 55.0, 'K_Reuss': 85.0, 'K_VRH': 87.0, 'K_Voigt': 88.0, 'K_Voigt_Reuss_Hill': 87.0, 'elastic_anisotropy': 0.58, 'elastic_tensor': [[174.0, 27.0, 23.0, 0.0, 0.0, 0.0], [27.0, 228.0, 65.0, 0.0, 0.0, 0.0], [23.0, 65.0, 160.0, 0.0, 0.0, 0.0], [0.0, 0.0, 0.0, 51.0, 0.0, 0.0], [0.0, 0.0, 0.0, 0.0, 57.0, 0.0], [0.0, 0.0, 0.0, 0.0, 0.0, 33.0]], 'homogeneous_poisson': 0.24, 'poisson_ratio': 0.24, 'universal_anisotropy': 0.58, 'elastic_tensor_original': [[160.2798626822498, 23.46982278359575, 64.90390738288161, 0.0, 0.0, 0.0], [23.50360540933108, 174.3734117662669, 27.40529364228281, 0.0, 0.0, 0.0], [64.57997649612199, 27.11953016432808, 228.0851589782998, 0.0, 0.0, 0.0], [1.7909968170652164e-05, 2.744329759984779e-05, 4.148662749155546e-05, 33.360271826924155, 0.0, 0.0], [-0.14196316076877688, -0.12454098891669098, -0.06884388430846908, 0.0, 50.645596860861744, 0.0], [-0.0006057598155620051, -0.00013721662488808608, -4.7293318933757004e-05, 0.0, 0.0, 57.34520079670772]], 'compliance_tensor': [[5.9, -0.5, -0.7, 0.0, 0.0, 0.0], [-0.5, 5.0, -1.9, 0.0, 0.0, 0.0], [-0.7, -1.9, 7.1, 0.0, 0.0, 0.0], [0.0, 0.0, 0.0, 19.7, 0.0, 0.0], [0.0, 0.0, 0.0, 0.0, 17.4, 0.0], [0.0, 0.0, 0.0, 0.0, 0.0, 30.0]], 'warnings': [], 'nsites': 6}",0,55,87,0.58,0.24,136.4
85,mp-7859,ZrS,"{'Zr': 1.0, 'S': 1.0}",0.151954828,5.636888723,"{'G_Reuss': 33.0, 'G_VRH': 44.0, 'G_Voigt': 55.0, 'G_Voigt_Reuss_Hill': 44.0, 'K_Reuss': 117.0, 'K_VRH': 119.0, 'K_Voigt': 122.0, 'K_Voigt_Reuss_Hill': 119.0, 'elastic_anisotropy': 3.24, 'elastic_tensor': [[182.0, 143.0, 70.0, 0.0, 0.0, 0.0], [143.0, 182.0, 70.0, 0.0, 0.0, 0.0], [70.0, 70.0, 166.0, 0.0, 0.0, 0.0], [0.0, 0.0, 0.0, 27.0, 0.0, 0.0], [0.0, 0.0, 0.0, 0.0, 27.0, 0.0], [0.0, 0.0, 0.0, 0.0, 0.0, 137.0]], 'homogeneous_poisson': 0.34, 'poisson_ratio': 0.34, 'universal_anisotropy': 3.24, 'elastic_tensor_original': [[182.2276061795975, 143.30643469152278, 69.29260957489724, 0.0, 0.0, 0.0], [143.30583421126462, 182.2269365193116, 69.29149071673483, 0.0, 0.0, 0.0], [69.84957654018127, 69.84957654018127, 165.56576517842115, 0.0, 0.0, 0.0], [-0.0012230096846139024, -0.0013269929911328576, 0.00027705326188732767, 26.669143259274726, 0.0, 0.0], [-4.73399877929718e-05, -0.00010221664031038879, -2.0763327978808118e-05, 0.0, 26.669043465967118, 0.0], [9.973665287523152e-05, 7.610665613857508e-05, 5.856999189746912e-05, 0.0, 0.0, 137.26087250088943]], 'compliance_tensor': [[14.7, -11.0, -1.6, -0.0, 0.0, 0.0], [-11.0, 14.7, -1.6, -0.0, 0.0, 0.0], [-1.6, -1.6, 7.4, 0.0, 0.0, 0.0], [-0.0, -0.0, 0.0, 37.5, 0.0, 0.0], [0.0, 0.0, 0.0, 0.0, 37.5, 0.0], [0.0, 0.0, 0.0, 0.0, 0.0, 7.3]], 'warnings': [], 'nsites': 4}",0,44,119,3.24,0.34,117.92
86,mp-864889,ZrZn3,"{'Zr': 1.0, 'Zn': 3.0}",0.17042457,7.245114221,"{'G_Reuss': 37.0, 'G_VRH': 39.0, 'G_Voigt': 40.0, 'G_Voigt_Reuss_Hill': 39.0, 'K_Reuss': 100.0, 'K_VRH': 100.0, 'K_Voigt': 101.0, 'K_Voigt_Reuss_Hill': 100.0, 'elastic_anisotropy': 0.42, 'elastic_tensor': [[142.0, 87.0, 67.0, 0.0, 0.0, 0.0], [87.0, 142.0, 67.0, 0.0, 0.0, 0.0], [67.0, 67.0, 179.0, 0.0, 0.0, 0.0], [0.0, 0.0, 0.0, 46.0, 0.0, 0.0], [0.0, 0.0, 0.0, 0.0, 46.0, 0.0], [0.0, 0.0, 0.0, 0.0, 0.0, 27.0]], 'homogeneous_poisson': 0.33, 'poisson_ratio': 0.33, 'universal_anisotropy': 0.42, 'elastic_tensor_original': [[144.22675862946244, 85.16860504066155, 66.28020852801897, 0.0, 0.0, 0.0], [84.88368974741798, 144.13099830667593, 65.24830809815627, 0.0, 0.0, 0.0], [67.69604987995432, 67.6960606195923, 179.18649760660804, 0.0, 0.0, 0.0], [1.593689616889188e-05, 8.672335288168033e-05, -0.00011773320874205042, 46.36714002620058, 0.0, 0.0], [-0.030718828317683102, -0.003189450939216336, -0.03540041008607547, 0.0, 46.30032821443308, 0.0], [-0.024309300313902594, -0.005246930546116524, -0.019050036545480847, 0.0, 0.0, 25.27853024595776]], 'compliance_tensor': [[11.9, -6.3, -2.1, 0.0, 0.0, -0.0], [-6.3, 11.9, -2.1, -0.0, -0.0, -0.0], [-2.1, -2.1, 7.1, -0.0, 0.0, 0.0], [-0.0, 0.0, -0.0, 21.6, -0.0, -0.0], [-0.0, -0.0, 0.0, -0.0, 21.6, -0.0], [-0.0, -0.0, 0.0, -0.0, -0.0, 36.5]], 'warnings': [], 'nsites': 8}",0,39,100,0.42,0.33,103.74
87,mp-893,ZrSi,"{'Zr': 1.0, 'Si': 1.0}",0.093326327,5.5626509,"{'G_Reuss': 90.0, 'G_VRH': 93.0, 'G_Voigt': 97.0, 'G_Voigt_Reuss_Hill': 93.0, 'K_Reuss': 141.0, 'K_VRH': 141.0, 'K_Voigt': 142.0, 'K_Voigt_Reuss_Hill': 141.0, 'elastic_anisotropy': 0.36, 'elastic_tensor': [[297.0, 75.0, 70.0, 0.0, 0.0, 0.0], [75.0, 229.0, 107.0, 0.0, 0.0, 0.0], [70.0, 107.0, 244.0, 0.0, 0.0, 0.0], [0.0, 0.0, 0.0, 138.0, 0.0, 0.0], [0.0, 0.0, 0.0, 0.0, 78.0, 0.0], [0.0, 0.0, 0.0, 0.0, 0.0, 94.0]], 'homogeneous_poisson': 0.23, 'poisson_ratio': 0.23, 'universal_anisotropy': 0.36, 'elastic_tensor_original': [[244.415530000896, 69.15436589089964, 108.69693295335144, 0.0, 0.0, 0.0], [70.58425876495339, 296.871632997229, 75.1196647204728, 0.0, 0.0, 0.0], [105.69118491681148, 74.40568262804638, 229.36871426259702, 0.0, 0.0, 0.0], [0.00015388343057575523, -0.0001111200702196912, 0.00017532011078864705, 93.8547283054453, 0.0, 0.0], [0.00010416682212269049, 0.00015467356416322615, 0.0001725102574485178, 0.0, 137.7945208294041, 0.0], [-2.9353378337464864e-05, -4.1523396998062586e-05, -8.982680439079508e-05, 0.0, 0.0, 78.15070839879327]], 'compliance_tensor': [[3.8, -0.9, -0.7, 0.0, 0.0, 0.0], [-0.9, 5.7, -2.2, -0.0, 0.0, 0.0], [-0.7, -2.2, 5.3, 0.0, 0.0, 0.0], [0.0, -0.0, 0.0, 7.3, 0.0, 0.0], [0.0, 0.0, 0.0, 0.0, 12.8, 0.0], [0.0, 0.0, 0.0, 0.0, 0.0, 10.7]], 'warnings': [], 'nsites': 8}",0,93,141,0.36,0.23,228.78
88,mp-903,ZrCr2,"{'Zr': 1.0, 'Cr': 2.0}",0.211028958,7.109106916,"{'G_Reuss': 56.0, 'G_VRH': 56.0, 'G_Voigt': 56.0, 'G_Voigt_Reuss_Hill': 56.0, 'K_Reuss': 181.0, 'K_VRH': 181.0, 'K_Voigt': 181.0, 'K_Voigt_Reuss_Hill': 181.0, 'elastic_anisotropy': 0.03, 'elastic_tensor': [[249.0, 147.0, 147.0, 0.0, 0.0, 0.0], [147.0, 249.0, 147.0, 0.0, 0.0, 0.0], [147.0, 147.0, 249.0, 0.0, 0.0, 0.0], [0.0, 0.0, 0.0, 60.0, 0.0, 0.0], [0.0, 0.0, 0.0, 0.0, 60.0, 0.0], [0.0, 0.0, 0.0, 0.0, 0.0, 60.0]], 'homogeneous_poisson': 0.36, 'poisson_ratio': 0.36, 'universal_anisotropy': 0.03, 'elastic_tensor_original': [[248.88104397848844, 147.5734410999016, 147.5734410999016, 0.0, 0.0, 0.0], [147.3986670854327, 248.32776575845085, 147.3986670854327, 0.0, 0.0, 0.0], [147.3950275854976, 147.3950275854976, 248.32507567242592, 0.0, 0.0, 0.0], [1.3873313908238378e-05, 1.581330525686797e-05, 8.053300076757077e-06, 59.888086235022335, 0.0, 0.0], [4.3799596566156606e-06, -9.102995979322194e-05, 6.103294409177594e-06, 0.0, 59.88785506518917, 0.0], [9.119657876458529e-05, 0.00010302656977740718, 0.00012551656194019942, 0.0, 0.0, 59.887961281733624]], 'compliance_tensor': [[7.2, -2.7, -2.7, -0.0, 0.0, 0.0], [-2.7, 7.2, -2.7, -0.0, -0.0, 0.0], [-2.7, -2.7, 7.2, 0.0, -0.0, 0.0], [-0.0, -0.0, 0.0, 16.7, -0.0, 0.0], [0.0, -0.0, -0.0, -0.0, 16.7, 0.0], [0.0, 0.0, 0.0, 0.0, 0.0, 16.7]], 'warnings': [], 'nsites': 6}",0,56,181,0.03,0.36,152.32
89,mp-929,ZrCo2,"{'Zr': 1.0, 'Co': 2.0}",0.156807717,8.422444008,"{'G_Reuss': 76.0, 'G_VRH': 76.0, 'G_Voigt': 76.0, 'G_Voigt_Reuss_Hill': 76.0, 'K_Reuss': 164.0, 'K_VRH': 164.0, 'K_Voigt': 164.0, 'K_Voigt_Reuss_Hill': 164.0, 'elastic_anisotropy': 0.03, 'elastic_tensor': [[256.0, 118.0, 118.0, 0.0, 0.0, 0.0], [118.0, 256.0, 118.0, 0.0, 0.0, 0.0], [118.0, 118.0, 256.0, 0.0, 0.0, 0.0], [0.0, 0.0, 0.0, 81.0, 0.0, 0.0], [0.0, 0.0, 0.0, 0.0, 81.0, 0.0], [0.0, 0.0, 0.0, 0.0, 0.0, 81.0]], 'homogeneous_poisson': 0.3, 'poisson_ratio': 0.3, 'universal_anisotropy': 0.03, 'elastic_tensor_original': [[256.0592437861302, 117.81601173546483, 117.81604579556715, -3.4100001920579624e-05, -5.407840286079814e-05, 0.0], [118.0678702248262, 256.2869985778033, 118.06790436511946, -5.41586365024954e-05, -3.416024293694369e-05, 7.912373370254491e-06], [118.1472596323087, 118.14683609748336, 255.9021305193427, 0.0036296767453545924, 0.0003519201838608975, 0.0019622250753219533], [0.00019981906650896474, -0.00011744656380607115, -0.00011940793222995166, 81.24779885582437, 0.0, -1.1893343256362583e-05], [0.0006642204587192604, 0.0006683574288573429, 0.0006709216912595144, 0.0, 81.24816500594362, -1.1893337039653178e-05], [-1.8827588514153593e-05, -1.5178238832799828e-05, -4.1739713601431236e-05, -1.175667822696595e-05, -1.1900011748321113e-05, 81.25034648452205]], 'compliance_tensor': [[5.5, -1.7, -1.7, 0.0, -0.0, -0.0], [-1.7, 5.5, -1.7, -0.0, 0.0, -0.0], [-1.7, -1.7, 5.5, -0.0, -0.0, 0.0], [0.0, -0.0, -0.0, 12.3, -0.0, -0.0], [-0.0, 0.0, -0.0, -0.0, 12.3, -0.0], [-0.0, -0.0, 0.0, -0.0, -0.0, 12.3]], 'warnings': [], 'nsites': 6}",0,76,164,0.03,0.3,197.6
90,mp-972228,Zr3As2,"{'Zr': 3.0, 'As': 2.0}",0.101367624,6.85368351,"{'G_Reuss': 59.0, 'G_VRH': 61.0, 'G_Voigt': 64.0, 'G_Voigt_Reuss_Hill': 61.0, 'K_Reuss': 126.0, 'K_VRH': 126.0, 'K_Voigt': 126.0, 'K_Voigt_Reuss_Hill': 126.0, 'elastic_anisotropy': 0.48, 'elastic_tensor': [[201.0, 72.0, 107.0, 0.0, 0.0, 0.0], [72.0, 217.0, 95.0, 0.0, 0.0, 0.0], [107.0, 95.0, 167.0, 0.0, 0.0, 0.0], [0.0, 0.0, 0.0, 76.0, 0.0, 0.0], [0.0, 0.0, 0.0, 0.0, 78.0, 0.0], [0.0, 0.0, 0.0, 0.0, 0.0, 63.0]], 'homogeneous_poisson': 0.29, 'poisson_ratio': 0.29, 'universal_anisotropy': 0.48, 'elastic_tensor_original': [[167.16603017862622, 106.74628870951625, 96.3529177233884, 0.0, 0.0, 0.0], [106.33900513141917, 201.45115831750184, 71.84862961274682, 0.0, 0.0, 0.0], [94.61099125401613, 72.23937503915153, 217.48866797200114, 0.0, 0.0, 0.0], [-0.005088776394832539, 0.0008615271865876971, -0.0007949904855234694, 62.59382730225809, 0.0, 0.0], [-6.5566675744066365e-06, -7.700031310516439e-07, -6.5033321561378235e-06, 0.0, 76.01436375916904, 0.0], [-5.433258631623853e-06, 3.419320868742895e-05, 5.594982296318911e-05, 0.0, 0.0, 78.20735416945222]], 'compliance_tensor': [[7.5, -0.5, -4.5, -0.0, 0.0, 0.0], [-0.5, 6.2, -3.2, 0.0, 0.0, 0.0], [-4.5, -3.2, 10.7, 0.0, 0.0, 0.0], [-0.0, 0.0, 0.0, 13.2, 0.0, 0.0], [0.0, 0.0, 0.0, 0.0, 12.8, 0.0], [0.0, 0.0, 0.0, 0.0, 0.0, 16.0]], 'warnings': [], 'nsites': 20}",0,61,126,0.48,0.29,157.38