,mp_id,Formula,Composition,IPF,Density,Elastic_Tensor,E_above_Hull,G_VRH,K_VRH,Elastic_Anisotropy,poisson_ratio,Y_Modulus
117,mp-3909,ZrAlCo2,"{'Zr': 1.0, 'Al': 1.0, 'Co': 2.0}",0.137837159,6.969839081,"{'G_Reuss': 78.0, 'G_VRH': 78.0, 'G_Voigt': 79.0, 'G_Voigt_Reuss_Hill': 78.0, 'K_Reuss': 161.0, 'K_VRH': 161.0, 'K_Voigt': 161.0, 'K_Voigt_Reuss_Hill': 161.0, 'elastic_anisotropy': 0.04, 'elastic_tensor': [[254.0, 114.0, 114.0, 0.0, 0.0, 0.0], [114.0, 254.0, 114.0, 0.0, 0.0, 0.0], [114.0, 114.0, 254.0, 0.0, 0.0, 0.0], [0.0, 0.0, 0.0, 84.0, 0.0, 0.0], [0.0, 0.0, 0.0, 0.0, 84.0, 0.0], [0.0, 0.0, 0.0, 0.0, 0.0, 84.0]], 'homogeneous_poisson': 0.29, 'poisson_ratio': 0.29, 'universal_anisotropy': 0.04, 'elastic_tensor_original': [[254.35634408018726, 114.29805742175718, 114.29805742175718, 0.0, 0.0, 0.0], [114.19439642126734, 254.2535514613225, 114.19439642126734, 0.0, 0.0, 0.0], [114.23049762204172, 114.23049762204172, 254.28923248554764, 0.0, 0.0, 0.0], [6.639662980736788e-05, 7.861663275888546e-05, 5.9406639763065665e-05, 84.18059490940026, 0.0, 0.0], [-0.00014409007056679943, -0.00015381005192769415, -0.00015022339797100324, 0.0, 84.18061525936834, 0.0], [-3.4359982807831734e-05, -2.91266466620273e-05, -4.3006649973786674e-05, 0.0, 0.0, 84.18063683269503]], 'compliance_tensor': [[5.5, -1.7, -1.7, 0.0, -0.0, 0.0], [-1.7, 5.5, -1.7, 0.0, 0.0, -0.0], [-1.7, -1.7, 5.5, -0.0, 0.0, 0.0], [0.0, 0.0, -0.0, 11.9, -0.0, -0.0], [-0.0, 0.0, 0.0, -0.0, 11.9, -0.0], [0.0, -0.0, 0.0, -0.0, -0.0, 11.9]], 'warnings': [], 'nsites': 4}",0,78,161,0.04,0.29,201.24
118,mp-3938,ZrSiS,"{'Zr': 1.0, 'Si': 1.0, 'S': 1.0}",0.11947463,4.860704661,"{'G_Reuss': 83.0, 'G_VRH': 86.0, 'G_Voigt': 88.0, 'G_Voigt_Reuss_Hill': 86.0, 'K_Reuss': 124.0, 'K_VRH': 125.0, 'K_Voigt': 126.0, 'K_Voigt_Reuss_Hill': 125.0, 'elastic_anisotropy': 0.28, 'elastic_tensor': [[251.0, 68.0, 78.0, 0.0, 0.0, 0.0], [68.0, 251.0, 78.0, 0.0, 0.0, 0.0], [78.0, 78.0, 182.0, 0.0, 0.0, 0.0], [0.0, 0.0, 0.0, 83.0, 0.0, 0.0], [0.0, 0.0, 0.0, 0.0, 83.0, 0.0], [0.0, 0.0, 0.0, 0.0, 0.0, 120.0]], 'homogeneous_poisson': 0.22, 'poisson_ratio': 0.22, 'universal_anisotropy': 0.28, 'elastic_tensor_original': [[250.71485168747338, 67.751771479741, 79.0258319531392, 0.0, 0.0, 0.0], [67.75331262065514, 250.7151946349492, 79.02705267370979, 0.0, 0.0, 0.0], [76.94315526984748, 76.94315526984748, 181.6928928624049, 0.0, 0.0, 0.0], [-4.269663573989369e-05, 5.223329550802766e-06, 7.909660937439753e-05, 82.65324012493659, 0.0, 0.0], [4.8839964623952e-05, 8.441993885238462e-05, -0.00012545657579475752, 0.0, 82.6530011017764, 0.0], [-2.5669982356561366e-05, -2.343331722767552e-05, 6.656662091340454e-06, 0.0, 0.0, 120.3924496662257]], 'compliance_tensor': [[4.7, -0.7, -1.7, 0.0, -0.0, 0.0], [-0.7, 4.7, -1.7, 0.0, 0.0, 0.0], [-1.7, -1.7, 7.0, 0.0, -0.0, 0.0], [0.0, 0.0, 0.0, 12.1, 0.0, 0.0], [-0.0, 0.0, -0.0, 0.0, 12.1, 0.0], [0.0, 0.0, 0.0, 0.0, 0.0, 8.3]], 'warnings': [], 'nsites': 6}",0,86,125,0.28,0.22,209.84
119,mp-4002,Li2ZrF6,"{'Li': 2.0, 'Zr': 1.0, 'F': 6.0}",0.167143673,3.459404914,"{'G_Reuss': 34.0, 'G_VRH': 35.0, 'G_Voigt': 37.0, 'G_Voigt_Reuss_Hill': 35.0, 'K_Reuss': 57.0, 'K_VRH': 58.0, 'K_Voigt': 58.0, 'K_Voigt_Reuss_Hill': 58.0, 'elastic_anisotropy': 0.38, 'elastic_tensor': [[94.0, 29.0, 42.0, 0.0, 8.0, 0.0], [29.0, 94.0, 42.0, 0.0, -8.0, 0.0], [42.0, 42.0, 111.0, 0.0, 0.0, 0.0], [0.0, 0.0, 0.0, 44.0, 0.0, -8.0], [8.0, -8.0, 0.0, 0.0, 44.0, 0.0], [0.0, 0.0, 0.0, -8.0, 0.0, 33.0]], 'homogeneous_poisson': 0.25, 'poisson_ratio': 0.25, 'universal_anisotropy': 0.38, 'elastic_tensor_original': [[93.47861548446303, 29.131699971316948, 41.605592382334564, 0.0, -7.435246411754404, 0.0], [28.608169899907733, 95.31034361027949, 42.04901540209534, 0.0, 8.149772892213106, 0.0], [42.31770645255752, 42.317714571969404, 111.13613896410077, 0.0, 0.0, 0.0], [1.1993341850029528e-05, 8.196005820571227e-05, 4.691669998595858e-05, 44.28620023051622, 2.347668333729467e-05, 8.45500926445296], [-8.50545216513981, 8.258245985838805, -0.588057159214652, 0.0, 44.229726764187745, 0.0], [7.952012940063425e-05, 1.1393351873306536e-05, 3.404672207006977e-05, 8.553320188694792, 7.333345265969771e-07, 32.62527732811281]], 'compliance_tensor': [[13.5, -2.6, -4.1, -0.0, -3.0, 0.0], [-2.6, 13.5, -4.1, 0.0, 3.0, 0.0], [-4.1, -4.1, 12.1, 0.0, 0.0, -0.0], [-0.0, 0.0, 0.0, 23.7, 0.0, 6.0], [-3.0, 3.0, 0.0, 0.0, 23.7, -0.0], [0.0, 0.0, -0.0, 6.0, -0.0, 32.1]], 'warnings': [], 'nsites': 9}",0,35,58,0.38,0.25,87.5
120,mp-4022,Zr2CoSi2,"{'Zr': 2.0, 'Co': 1.0, 'Si': 2.0}",0.105964095,6.125214733,"{'G_Reuss': 92.0, 'G_VRH': 95.0, 'G_Voigt': 97.0, 'G_Voigt_Reuss_Hill': 95.0, 'K_Reuss': 150.0, 'K_VRH': 151.0, 'K_Voigt': 151.0, 'K_Voigt_Reuss_Hill': 151.0, 'elastic_anisotropy': 0.24, 'elastic_tensor': [[266.0, 118.0, 88.0, 0.0, -1.0, 0.0], [118.0, 234.0, 88.0, 0.0, -13.0, 0.0], [88.0, 88.0, 271.0, 0.0, -3.0, 0.0], [0.0, 0.0, 0.0, 117.0, 0.0, 2.0], [-1.0, -13.0, -3.0, 0.0, 99.0, 0.0], [0.0, 0.0, 0.0, 2.0, 0.0, 109.0]], 'homogeneous_poisson': 0.24, 'poisson_ratio': 0.24, 'universal_anisotropy': 0.24, 'elastic_tensor_original': [[266.494826214891, 119.26949487592499, 82.52804677834047, 8.000127878894883e-07, -6.22489470249138, -3.0400485939800555e-05], [117.02677861101098, 233.67873648623353, 77.0480582875104, 0.0, -15.841184550343208, 0.0], [93.35275209383195, 98.40955808067572, 271.47133682795726, 1.9999925593007565e-07, -2.3972092815101766, -1.0599960564294011e-05], [0.0, -6.33202838802248e-10, 0.0, 116.87372969814027, 0.0, 0.27093525209007047], [3.361052422849538, -10.119323086222323, -3.3709223095447576, -1.1300099257937151e-05, 98.54588330842245, -3.00002635166473e-07], [0.0, -2.4970091194830716e-07, 0.0, 3.826140262395333, 0.0, 109.08382007267682]], 'compliance_tensor': [[5.036161421709875, -2.215203003993867, -0.9181421199713967, -1.8400067530570475e-10, -0.24556045389419612, 5.424935097748025e-09], [-2.2152030039938664, 5.87985654644926, -1.1750472902319806, 1.111774953734068e-16, 0.7080069048180445, 1.3459404052591268e-08], [-0.9181421199713967, -1.1750472902319804, 4.360347628026158, 5.870032442051269e-17, -0.040484954511456755, -2.6897656676032424e-09], [-1.8400067530570457e-10, 1.1117749525578985e-16, 5.870032437326048e-17, 8.55907572749029, 9.796162352136035e-09, -0.16076452192670737], [-0.245560453894196, 0.7080069048180445, -0.040484954511456776, 9.796162352136037e-09, 10.236088878052021, 1.4366769185667991e-09], [5.4249350977480245e-09, 1.3459404052591265e-08, -2.689765667603241e-09, -0.1607645219267074, 1.4366769185667983e-09, 9.170265220760996]], 'warnings': [], 'nsites': 10}",0,95,151,0.24,0.24,235.6
121,mp-4075,TbZrSb,"{'Tb': 1.0, 'Zr': 1.0, 'Sb': 1.0}",0.117486385,8.043920819,"{'G_Reuss': 34.0, 'G_VRH': 38.0, 'G_Voigt': 41.0, 'G_Voigt_Reuss_Hill': 38.0, 'K_Reuss': 80.0, 'K_VRH': 80.0, 'K_Voigt': 80.0, 'K_Voigt_Reuss_Hill': 80.0, 'elastic_anisotropy': 0.95, 'elastic_tensor': [[111.0, 77.0, 47.0, 0.0, 0.0, 0.0], [77.0, 111.0, 47.0, 0.0, 0.0, 0.0], [47.0, 47.0, 159.0, 0.0, 0.0, 0.0], [0.0, 0.0, 0.0, 39.0, 0.0, 0.0], [0.0, 0.0, 0.0, 0.0, 39.0, 0.0], [0.0, 0.0, 0.0, 0.0, 0.0, 55.0]], 'homogeneous_poisson': 0.3, 'poisson_ratio': 0.3, 'universal_anisotropy': 0.95, 'elastic_tensor_original': [[111.16438881070209, 76.58887683608933, 47.97621553082715, 5.7998891830136825e-06, 0.0, 0.0], [76.58887683597852, 111.16438881054195, 47.97621553075774, 5.742334000388859e-06, -5.799889184202983e-06, 0.0], [46.487468494826935, 46.487468494826935, 158.94575844904497, 1.899985641834104e-05, -1.899985641834104e-05, 0.0], [0.0, 4.696913431417076e-06, 0.0, 39.24190768627771, -3.157411240604117e-08, -2.3499941824727145e-06], [-4.696913431970075e-06, 0.0, 0.0, 3.1574112420293663e-08, 39.24190768627771, 2.3499941769773308e-06], [0.552869305610158, -0.552869305610734, 0.0, 2.4728912151817955e-08, 4.9999986947080594e-08, 55.28416466176684]], 'compliance_tensor': [[17.6, -11.3, -1.9, -0.0, 0.0, 0.0], [-11.3, 17.6, -1.9, 0.0, -0.0, -0.0], [-1.9, -1.9, 7.4, 0.0, 0.0, 0.0], [-0.0, 0.0, 0.0, 25.5, 0.0, 0.0], [0.0, -0.0, 0.0, 0.0, 25.5, 0.0], [0.0, -0.0, 0.0, 0.0, 0.0, 18.1]], 'warnings': ['Contains a rare earth element'], 'nsites': 6}",0,38,80,0.95,0.3,98.8
122,mp-4408,Sm2Zr2O7,"{'Sm': 2.0, 'Zr': 2.0, 'O': 7.0}",0.516629302,6.419635082,"{'G_Reuss': 87.0, 'G_VRH': 87.0, 'G_Voigt': 87.0, 'G_Voigt_Reuss_Hill': 87.0, 'K_Reuss': 162.0, 'K_VRH': 162.0, 'K_Voigt': 162.0, 'K_Voigt_Reuss_Hill': 162.0, 'elastic_anisotropy': 0.0, 'elastic_tensor': [[283.0, 101.0, 101.0, 0.0, 0.0, 0.0], [101.0, 283.0, 101.0, 0.0, 0.0, 0.0], [101.0, 101.0, 283.0, 0.0, 0.0, 0.0], [0.0, 0.0, 0.0, 85.0, 0.0, 0.0], [0.0, 0.0, 0.0, 0.0, 85.0, 0.0], [0.0, 0.0, 0.0, 0.0, 0.0, 85.0]], 'homogeneous_poisson': 0.27, 'poisson_ratio': 0.27, 'universal_anisotropy': 0.0, 'elastic_tensor_original': [[282.9868566109837, 101.44430391353097, 101.44430391353097, 0.0, 0.0, 0.0], [101.33659688870958, 282.70116389066675, 101.33659688870958, 0.0, 0.0, 0.0], [101.40772321292494, 101.40772321292494, 282.76905918023846, 0.0, 0.0, 0.0], [-0.0009708204511942735, -0.0006203436216400366, -0.0011948038886252994, 85.15705994056991, 0.0, 0.0], [-0.00013399339560696253, 0.0009328871002316207, 0.0010015337988021477, 0.0, 85.15666328038557, 0.0], [-0.0007190936675359093, -0.000747733680846273, -0.0010776471675091911, 0.0, 0.0, 85.15681148378779]], 'compliance_tensor': [[4.4, -1.2, -1.2, 0.0, -0.0, 0.0], [-1.2, 4.4, -1.2, 0.0, 0.0, -0.0], [-1.2, -1.2, 4.4, -0.0, 0.0, 0.0], [0.0, 0.0, -0.0, 11.7, -0.0, -0.0], [-0.0, 0.0, 0.0, -0.0, 11.7, -0.0], [0.0, -0.0, 0.0, -0.0, -0.0, 11.7]], 'warnings': ['Contains a rare earth element'], 'nsites': 22}",0,87,162,0,0.27,220.98
123,mp-4613,Zr2SnC,"{'Zr': 2.0, 'Sn': 1.0, 'C': 1.0}",0.107345018,7.123121982,"{'G_Reuss': 79.0, 'G_VRH': 80.0, 'G_Voigt': 80.0, 'G_Voigt_Reuss_Hill': 80.0, 'K_Reuss': 127.0, 'K_VRH': 127.0, 'K_Voigt': 128.0, 'K_Voigt_Reuss_Hill': 127.0, 'elastic_anisotropy': 0.08, 'elastic_tensor': [[225.0, 58.0, 89.0, 0.0, 0.0, 0.0], [58.0, 225.0, 89.0, 0.0, 0.0, 0.0], [89.0, 89.0, 229.0, 0.0, 0.0, 0.0], [0.0, 0.0, 0.0, 85.0, 0.0, 0.0], [0.0, 0.0, 0.0, 0.0, 85.0, 0.0], [0.0, 0.0, 0.0, 0.0, 0.0, 84.0]], 'homogeneous_poisson': 0.24, 'poisson_ratio': 0.24, 'universal_anisotropy': 0.08, 'elastic_tensor_original': [[225.8407189057766, 57.32993351553477, 88.47211411382345, 0.0, 0.0, 0.0], [55.16318529423921, 226.7074758399998, 87.71781688621326, 0.0, 0.0, 0.0], [89.72087641843329, 89.72084909937412, 228.56315307524193, 0.0, 0.0, 0.0], [-0.0003591567032551485, -0.000262849735827501, -0.00011065027280010128, 85.37080867866625, 0.0, 0.0], [5.1002756662433404e-05, -4.8170758080537697e-05, -0.0001958167918151121, 0.0, 85.30746817381697, 0.0], [-0.00019705325356860552, -6.48197904489673e-05, -0.00024370306284702422, 0.0, 0.0, 82.34700071209846]], 'compliance_tensor': [[5.3, -0.6, -1.8, -0.0, -0.0, -0.0], [-0.6, 5.3, -1.8, -0.0, -0.0, -0.0], [-1.8, -1.8, 5.8, 0.0, 0.0, 0.0], [-0.0, -0.0, 0.0, 11.7, -0.0, -0.0], [-0.0, -0.0, 0.0, -0.0, 11.7, -0.0], [-0.0, -0.0, 0.0, -0.0, -0.0, 12.0]], 'warnings': [], 'nsites': 8}",0,80,127,0.08,0.24,198.4
124,mp-4628,ZrSiSe,"{'Zr': 1.0, 'Si': 1.0, 'Se': 1.0}",0.135383986,5.801912408,"{'G_Reuss': 47.0, 'G_VRH': 61.0, 'G_Voigt': 74.0, 'G_Voigt_Reuss_Hill': 61.0, 'K_Reuss': 69.0, 'K_VRH': 85.0, 'K_Voigt': 102.0, 'K_Voigt_Reuss_Hill': 85.0, 'elastic_anisotropy': 3.37, 'elastic_tensor': [[226.0, 60.0, 68.0, 0.0, 0.0, 0.0], [60.0, 226.0, 68.0, 0.0, 0.0, 0.0], [68.0, 68.0, 69.0, 0.0, 0.0, 0.0], [0.0, 0.0, 0.0, 75.0, 0.0, 0.0], [0.0, 0.0, 0.0, 0.0, 75.0, 0.0], [0.0, 0.0, 0.0, 0.0, 0.0, 113.0]], 'homogeneous_poisson': 0.21, 'poisson_ratio': 0.21, 'universal_anisotropy': 3.37, 'elastic_tensor_original': [[226.48773400111872, 59.961419948277644, 68.07170645032046, 0.0, 0.0, 0.0], [59.96158944356333, 226.4883525870983, 68.0750657857143, 0.0, 0.0, 0.0], [67.97322861292535, 67.97322861292535, 68.52495656415047, 0.0, 0.0, 0.0], [0.00029685629310268456, 0.0005446075287983805, -0.0006540525829521543, 74.8262983429211, 0.0, 0.0], [0.0005004991233768243, 0.00021037962280605712, -0.000523580866714468, 0.0, 74.82612704115162, 0.0], [-4.63116921483796e-05, -2.8261744067585407e-05, -3.3238421769801514e-05, 0.0, 0.0, 112.79257498966297]], 'compliance_tensor': [[6.3, 0.3, -6.6, -0.0, 0.0, -0.0], [0.3, 6.3, -6.6, -0.0, 0.0, -0.0], [-6.6, -6.6, 27.6, 0.0, 0.0, 0.0], [-0.0, -0.0, 0.0, 13.4, 0.0, 0.0], [0.0, 0.0, 0.0, 0.0, 13.4, 0.0], [-0.0, -0.0, 0.0, 0.0, 0.0, 8.9]], 'warnings': [], 'nsites': 6}",0,61,85,3.37,0.21,147.62
125,mp-5025,Zr2CS,"{'Zr': 2.0, 'C': 1.0, 'S': 1.0}",0.132640451,6.013909005,"{'G_Reuss': 111.0, 'G_VRH': 112.0, 'G_Voigt': 113.0, 'G_Voigt_Reuss_Hill': 112.0, 'K_Reuss': 165.0, 'K_VRH': 165.0, 'K_Voigt': 165.0, 'K_Voigt_Reuss_Hill': 165.0, 'elastic_anisotropy': 0.11, 'elastic_tensor': [[290.0, 91.0, 103.0, 0.0, 0.0, 0.0], [91.0, 290.0, 103.0, 0.0, 0.0, 0.0], [103.0, 103.0, 313.0, 0.0, 0.0, 0.0], [0.0, 0.0, 0.0, 133.0, 0.0, 0.0], [0.0, 0.0, 0.0, 0.0, 133.0, 0.0], [0.0, 0.0, 0.0, 0.0, 0.0, 99.0]], 'homogeneous_poisson': 0.22, 'poisson_ratio': 0.22, 'universal_anisotropy': 0.11, 'elastic_tensor_original': [[290.20560650010185, 91.6390317109781, 101.76777658543266, 0.0, 0.0, 0.0], [91.048317303486, 289.987765327606, 102.13701161621216, 0.0, 0.0, 0.0], [103.41093717760843, 103.41093055780138, 313.49916447655215, 0.0, 0.0, 0.0], [5.546674235463786e-05, 0.00012959686245029065, 3.02835224140392e-05, 133.13129228594218, 0.0, 0.0], [3.4403305214132555e-05, -0.00010388324842635217, 0.0001723065258320417, 0.0, 133.61732203225495, 0.0], [-2.538331345943847e-05, -0.00025150980307156044, -4.581329746376556e-05, 0.0, 0.0, 99.09330959482163]], 'compliance_tensor': [[4.1, -0.9, -1.0, 0.0, 0.0, 0.0], [-0.9, 4.1, -1.0, 0.0, 0.0, 0.0], [-1.0, -1.0, 3.9, -0.0, -0.0, -0.0], [0.0, 0.0, -0.0, 7.5, 0.0, 0.0], [0.0, 0.0, -0.0, 0.0, 7.5, 0.0], [0.0, 0.0, -0.0, 0.0, 0.0, 10.1]], 'warnings': [], 'nsites': 8}",0,112,165,0.11,0.22,273.28
126,mp-5068,DyZrSb,"{'Dy': 1.0, 'Zr': 1.0, 'Sb': 1.0}",0.145991476,8.186241744,"{'G_Reuss': 32.0, 'G_VRH': 35.0, 'G_Voigt': 39.0, 'G_Voigt_Reuss_Hill': 35.0, 'K_Reuss': 83.0, 'K_VRH': 83.0, 'K_Voigt': 84.0, 'K_Voigt_Reuss_Hill': 83.0, 'elastic_anisotropy': 1.2, 'elastic_tensor': [[106.0, 76.0, 55.0, 0.0, 0.0, 0.0], [76.0, 106.0, 55.0, 0.0, 0.0, 0.0], [55.0, 55.0, 169.0, 0.0, 0.0, 0.0], [0.0, 0.0, 0.0, 39.0, 0.0, 0.0], [0.0, 0.0, 0.0, 0.0, 39.0, 0.0], [0.0, 0.0, 0.0, 0.0, 0.0, 54.0]], 'homogeneous_poisson': 0.31, 'poisson_ratio': 0.31, 'universal_anisotropy': 1.2, 'elastic_tensor_original': [[105.96335443889448, 76.08674245475252, 59.58875372937554, -7.19983535476873e-06, 7.19983535476873e-06, 0.0], [76.08674245486229, 105.96335443904646, 59.588753729461494, 1.1407679850116309e-07, 7.199835355546289e-06, 0.0], [51.188243620386494, 51.188243620386494, 168.82400208058533, -2.0200155174553047e-05, 2.0200155174553047e-05, 0.0], [0.0, -4.5931610618360076e-06, 0.0, 38.62687890444833, 3.4460315728914525e-07, 2.3000012116649355e-06], [4.593161062315083e-06, 0.0, 0.0, -3.4460315732768774e-07, 38.626878904448354, -2.300001253532872e-06], [0.5419108731403516, -0.5419108731404381, 0.0, -2.5527736620990943e-08, -3.499975284268762e-07, 54.18799773585553]], 'compliance_tensor': [[20.2, -13.3, -2.3, 0.0, -0.0, 0.0], [-13.3, 20.2, -2.3, -0.0, 0.0, -0.0], [-2.3, -2.3, 7.4, -0.0, -0.0, 0.0], [0.0, -0.0, -0.0, 25.9, 0.0, -0.0], [-0.0, 0.0, -0.0, 0.0, 25.9, -0.0], [0.0, -0.0, 0.0, -0.0, -0.0, 18.5]], 'warnings': ['Contains a rare earth element'], 'nsites': 6}",0,35,83,1.2,0.31,91.7
127,mp-510456,Zr(MoO4)2,"{'Zr': 1.0, 'Mo': 2.0, 'O': 8.0}",0.36353141,3.371913948,"{'G_Reuss': 10.0, 'G_VRH': 14.0, 'G_Voigt': 18.0, 'G_Voigt_Reuss_Hill': 14.0, 'K_Reuss': 13.0, 'K_VRH': 22.0, 'K_Voigt': 32.0, 'K_Voigt_Reuss_Hill': 22.0, 'elastic_anisotropy': 5.32, 'elastic_tensor': [[89.0, 33.0, 8.0, 0.0, 0.0, 0.0], [33.0, 89.0, 8.0, -0.0, 0.0, 0.0], [8.0, 8.0, 13.0, 0.0, 0.0, 0.0], [0.0, -0.0, 0.0, 7.0, 0.0, 0.0], [0.0, 0.0, 0.0, 0.0, 7.0, 0.0], [0.0, 0.0, 0.0, 0.0, 0.0, 28.0]], 'homogeneous_poisson': 0.24, 'poisson_ratio': 0.24, 'universal_anisotropy': 5.32, 'elastic_tensor_original': [[89.568742932317, 31.70103919104727, 8.189007491187583, -3.465926183584941, 0.0, 0.0], [31.576395983348, 90.62178122288763, 6.7304042694075585, 5.195441141875319, 0.0, 0.0], [8.407733275145125, 8.407738414857088, 13.077421197536502, 0.0, 0.0, 0.0], [0.46504557360916643, -1.5605289164402942, -0.20423086574333804, 6.892931332622123, 0.0, 0.0], [-0.03945352881822858, -0.04850589614968088, -0.16005137842240133, -0.01457171816878804, 7.01686727638178, 0.9224170642096945], [0.0004740417623742112, -3.103974738449764e-05, 0.0004445347653718936, -0.0002677909121357828, 1.103122085357677, 27.164243952186432]], 'compliance_tensor': [[13.3, -4.4, -5.4, -0.8, 0.0, 0.0], [-4.4, 13.3, -5.4, 0.8, -0.0, 0.0], [-5.4, -5.4, 83.0, -0.0, -0.0, -0.0], [-0.8, 0.8, -0.0, 143.9, 0.0, -0.0], [-0.0, -0.0, -0.0, 0.0, 143.9, -1.6], [0.0, 0.0, -0.0, -0.0, -1.6, 35.5]], 'warnings': [], 'nsites': 11}",0,14,22,5.32,0.24,34.72
128,mp-541047,ZrAlPd2,"{'Zr': 1.0, 'Al': 1.0, 'Pd': 2.0}",0.133764655,8.143435711,"{'G_Reuss': 14.0, 'G_VRH': 15.0, 'G_Voigt': 16.0, 'G_Voigt_Reuss_Hill': 15.0, 'K_Reuss': 147.0, 'K_VRH': 147.0, 'K_Voigt': 147.0, 'K_Voigt_Reuss_Hill': 147.0, 'elastic_anisotropy': 0.68, 'elastic_tensor': [[160.0, 141.0, 141.0, 0.0, 0.0, 0.0], [141.0, 160.0, 141.0, 0.0, 0.0, 0.0], [141.0, 141.0, 160.0, 0.0, 0.0, 0.0], [0.0, 0.0, 0.0, 20.0, 0.0, 0.0], [0.0, 0.0, 0.0, 0.0, 20.0, 0.0], [0.0, 0.0, 0.0, 0.0, 0.0, 20.0]], 'homogeneous_poisson': 0.45, 'poisson_ratio': 0.45, 'universal_anisotropy': 0.68, 'elastic_tensor_original': [[160.27760014946946, 141.07866020163428, 141.07866020163428, 0.0, 0.0, 0.0], [141.02964897300993, 160.90320277604516, 141.02964897300993, 0.0, 0.0, 0.0], [141.37607200029908, 141.37605914821674, 159.24431212987568, 1.4596436731743247e-05, -8.661621796858631e-06, 3.3884585270118244e-06], [0.00012649983457643194, -2.886677217616579e-06, 1.8989964528761196e-05, 19.81085055833431, 0.0, 0.0], [-0.0118182316784296, -0.009831473349796708, -0.011538695254083445, 0.0, 19.77006939908461, 0.0], [8.785679188999178e-05, 0.00017555019883736458, 0.0005980338926083126, 0.0, 0.0, 19.766664456860614]], 'compliance_tensor': [[35.9, -16.8, -16.8, -0.0, 0.0, 0.0], [-16.8, 35.9, -16.8, 0.0, 0.0, 0.0], [-16.8, -16.8, 35.9, 0.0, 0.0, -0.0], [-0.0, 0.0, 0.0, 50.5, 0.0, -0.0], [0.0, 0.0, 0.0, 0.0, 50.5, 0.0], [0.0, 0.0, -0.0, -0.0, 0.0, 50.5]], 'warnings': [], 'nsites': 4}",0,15,147,0.68,0.45,43.5
129,mp-542791,ZrNCl,"{'Zr': 1.0, 'N': 1.0, 'Cl': 1.0}",0.103487223,4.241729539,"{'G_Reuss': 1.0, 'G_VRH': 12.0, 'G_Voigt': 23.0, 'G_Voigt_Reuss_Hill': 12.0, 'K_Reuss': 5.0, 'K_VRH': 25.0, 'K_Voigt': 45.0, 'K_Voigt_Reuss_Hill': 25.0, 'elastic_anisotropy': 110.07, 'elastic_tensor': [[140.0, 60.0, 1.0, -0.0, 0.0, 0.0], [60.0, 140.0, 1.0, 0.0, 0.0, 0.0], [1.0, 1.0, 5.0, 0.0, 0.0, 0.0], [-0.0, 0.0, 0.0, 0.0, 0.0, 0.0], [0.0, 0.0, 0.0, 0.0, 0.0, -0.0], [0.0, 0.0, 0.0, 0.0, -0.0, 40.0]], 'homogeneous_poisson': 0.29, 'poisson_ratio': 0.29, 'universal_anisotropy': 110.07, 'elastic_tensor_original': [[140.38238322340015, 59.69706793138799, -0.0040472071918354864, 0.990456639470837, 0.0, 0.0], [59.856191613391175, 140.39071426246215, 0.2749110061527065, -1.5561736538273176, 0.0, 0.0], [1.5827133595355187, 1.5827137398824667, 5.069881722265375, 0.0, 0.0, 0.0], [0.02321949048513273, 0.01595725158163509, 0.13771509241741445, 0.6996872255095891, 0.0, 0.0], [0.0, 0.0, 0.0, 0.0, 0.23039353380058508, 0.04659281469230553], [0.0, 0.0, 0.0, 0.0, -0.8763043884658868, 39.807168361203594]], 'compliance_tensor': [[8.7, -3.7, -0.8, 3.0, 0.0, -0.0], [-3.7, 8.7, -0.8, -3.0, -0.0, -0.0], [-0.8, -0.8, 197.5, -0.0, 0.0, 0.0], [3.0, -3.0, -0.0, 2151.8, -0.0, -0.0], [0.0, -0.0, 0.0, -0.0, 2151.8, 6.0], [-0.0, -0.0, 0.0, -0.0, 6.0, 25.0]], 'warnings': ['One or more K, G below 2 GPa'], 'nsites': 6}",0.809023333,12,25,110.07,0.29,30.96