,mp_id,Formula,Composition,IPF,Density,Elastic_Tensor,E_above_Hull,G_VRH,K_VRH,Elastic_Anisotropy,poisson_ratio,Y_Modulus
221,mp-7903,Cs2ZrF6,"{'Cs': 2.0, 'Zr': 1.0, 'F': 6.0}",0.32267732,4.127444048,"{'G_Reuss': 9.0, 'G_VRH': 9.0, 'G_Voigt': 10.0, 'G_Voigt_Reuss_Hill': 9.0, 'K_Reuss': 21.0, 'K_VRH': 21.0, 'K_Voigt': 21.0, 'K_Voigt_Reuss_Hill': 21.0, 'elastic_anisotropy': 0.4, 'elastic_tensor': [[36.0, 15.0, 13.0, 3.0, 0.0, 0.0], [15.0, 36.0, 13.0, -3.0, 0.0, 0.0], [13.0, 13.0, 30.0, 0.0, 0.0, 0.0], [3.0, -3.0, 0.0, 9.0, 0.0, 0.0], [0.0, 0.0, 0.0, 0.0, 9.0, 3.0], [0.0, 0.0, 0.0, 0.0, 3.0, 11.0]], 'homogeneous_poisson': 0.31, 'poisson_ratio': 0.31, 'universal_anisotropy': 0.4, 'elastic_tensor_original': [[37.05995718463955, 14.262775119859352, 12.546455650210177, -2.5285320472603523, 0.0, 0.0], [14.878117048952396, 36.402918239007356, 12.336510369108332, 2.5070611735710577, 0.0, 0.0], [14.373567921744671, 14.373573380920472, 30.376004818750957, 0.0, 0.0, 0.0], [-2.7339823997119326, 2.5813358154662107, 0.06346824922910566, 8.611617943676684, 0.0, 0.0], [-0.03227829463934939, -0.05310829376544528, -0.047044109553893126, 0.015511567519150189, 8.491293909605849, -2.547314590313984], [-0.0035664370363137137, 0.0010856355944928828, -0.005135333143998201, -0.005940026020626693, -2.7572241874564587, 9.924493049344663]], 'compliance_tensor': [[38.4, -13.1, -11.2, -15.8, 0.0, 0.0], [-13.1, 38.4, -11.2, 15.8, -0.0, 0.0], [-11.2, -11.2, 42.8, -0.0, 0.0, -0.0], [-15.8, 15.8, -0.0, 126.6, 0.0, -0.0], [0.0, -0.0, 0.0, 0.0, 126.6, -31.6], [0.0, 0.0, -0.0, -0.0, -31.6, 103.1]], 'warnings': [], 'nsites': 9}",0,9,21,0.4,0.31,23.58
222,mp-8221,ZrAsRu,"{'Zr': 1.0, 'As': 1.0, 'Ru': 1.0}",0.101120005,8.83545515,"{'G_Reuss': 83.0, 'G_VRH': 84.0, 'G_Voigt': 84.0, 'G_Voigt_Reuss_Hill': 84.0, 'K_Reuss': 187.0, 'K_VRH': 187.0, 'K_Voigt': 187.0, 'K_Voigt_Reuss_Hill': 187.0, 'elastic_anisotropy': 0.04, 'elastic_tensor': [[298.0, 125.0, 139.0, 0.0, 0.0, 0.0], [125.0, 298.0, 139.0, 0.0, 0.0, 0.0], [139.0, 139.0, 280.0, 0.0, 0.0, 0.0], [0.0, 0.0, 0.0, 88.0, 0.0, 0.0], [0.0, 0.0, 0.0, 0.0, 88.0, 0.0], [0.0, 0.0, 0.0, 0.0, 0.0, 86.0]], 'homogeneous_poisson': 0.31, 'poisson_ratio': 0.31, 'universal_anisotropy': 0.04, 'elastic_tensor_original': [[298.69986335782204, 123.53779219056887, 139.9497455337698, 0.0, 0.0, 0.0], [125.06085984304819, 297.8590764617669, 140.379369683219, 0.0, 0.0, 0.0], [138.82317047699286, 138.82314213869438, 280.2234196109843, 0.0, 0.0, 0.0], [-9.419787455422338e-06, -3.257707575931043e-05, -0.00010167310437375763, 88.55084612302228, 0.0, 0.0], [0.0007390052009160626, 0.003972754971380545, 0.0049161463636495425, 0.0, 87.99894114310771, 0.0], [-0.029697100298964108, -0.024063119607889042, -0.03566087769210566, 0.0, 0.0, 85.77711499760072]], 'compliance_tensor': [[4.7, -1.1, -1.8, 0.0, 0.0, 0.0], [-1.1, 4.7, -1.8, 0.0, 0.0, 0.0], [-1.8, -1.8, 5.3, -0.0, -0.0, -0.0], [0.0, 0.0, -0.0, 11.3, 0.0, 0.0], [0.0, 0.0, -0.0, 0.0, 11.3, 0.0], [0.0, 0.0, -0.0, -0.0, 0.0, 11.6]], 'warnings': [], 'nsites': 9}",0,84,187,0.04,0.31,220.08
223,mp-8335,Ba2ZrO4,"{'Ba': 2.0, 'Zr': 1.0, 'O': 4.0}",0.51955256,5.804495178,"{'G_Reuss': 55.0, 'G_VRH': 56.0, 'G_Voigt': 58.0, 'G_Voigt_Reuss_Hill': 56.0, 'K_Reuss': 106.0, 'K_VRH': 106.0, 'K_Voigt': 106.0, 'K_Voigt_Reuss_Hill': 106.0, 'elastic_anisotropy': 0.23, 'elastic_tensor': [[209.0, 51.0, 63.0, 0.0, 0.0, 0.0], [51.0, 209.0, 63.0, 0.0, 0.0, 0.0], [63.0, 63.0, 182.0, 0.0, 0.0, 0.0], [0.0, 0.0, 0.0, 45.0, 0.0, 0.0], [0.0, 0.0, 0.0, 0.0, 45.0, 0.0], [0.0, 0.0, 0.0, 0.0, 0.0, 57.0]], 'homogeneous_poisson': 0.27, 'poisson_ratio': 0.27, 'universal_anisotropy': 0.23, 'elastic_tensor_original': [[209.21100395248226, 51.14845728401656, 63.308026053813954, 0.0, 0.0, 0.0], [51.14852344134552, 209.2109476512925, 63.30824004226781, 0.0, 0.0, 0.0], [63.5132286244782, 63.5132286244782, 182.31876766865804, 0.0, 0.0, 0.0], [1.4646642522193899e-05, 2.3993293779653865e-05, 0.0002455529285371492, 44.922993137387785, 0.0, 0.0], [0.002456599283607316, 0.001606500685002842, -0.013781843947177259, 0.0, 44.93731098378469, 0.0], [-1.486664045552378e-06, 2.929994835372394e-06, -9.389983448346757e-06, 0.0, 0.0, 57.27533465283621]], 'compliance_tensor': [[5.5, -0.9, -1.6, 0.0, 0.0, 0.0], [-0.9, 5.5, -1.6, 0.0, -0.0, 0.0], [-1.6, -1.6, 6.6, 0.0, 0.0, -0.0], [0.0, 0.0, 0.0, 22.3, 0.0, 0.0], [0.0, -0.0, 0.0, 0.0, 22.3, -0.0], [0.0, 0.0, -0.0, 0.0, -0.0, 17.5]], 'warnings': [], 'nsites': 7}",0,56,106,0.23,0.27,142.24
224,mp-864607,ZrCdPd2,"{'Zr': 1.0, 'Cd': 1.0, 'Pd': 2.0}",0.181778684,9.548325518,"{'G_Reuss': 28.0, 'G_VRH': 34.0, 'G_Voigt': 40.0, 'G_Voigt_Reuss_Hill': 34.0, 'K_Reuss': 136.0, 'K_VRH': 136.0, 'K_Voigt': 136.0, 'K_Voigt_Reuss_Hill': 136.0, 'elastic_anisotropy': 2.31, 'elastic_tensor': [[157.0, 126.0, 126.0, 0.0, 0.0, 0.0], [126.0, 157.0, 126.0, 0.0, 0.0, 0.0], [126.0, 126.0, 157.0, 0.0, 0.0, 0.0], [0.0, 0.0, 0.0, 57.0, 0.0, 0.0], [0.0, 0.0, 0.0, 0.0, 57.0, 0.0], [0.0, 0.0, 0.0, 0.0, 0.0, 57.0]], 'homogeneous_poisson': 0.39, 'poisson_ratio': 0.39, 'universal_anisotropy': 2.31, 'elastic_tensor_original': [[157.17900917974816, 126.04800368216725, 126.04800368216725, 0.0, 0.0, 0.0], [126.05847400750268, 157.1893155033874, 126.05847400750268, 0.0, 0.0, 0.0], [126.06322827319401, 126.06322827319401, 157.1937658760486, 0.0, 0.0, 0.0], [7.256999532453845e-05, 6.490666248534766e-05, 6.713999567395218e-05, 56.852446356771544, 0.0, 0.0], [-4.839999688116308e-05, -5.637666303250415e-05, -4.972333012935266e-05, 0.0, 56.85244473677166, 0.0], [3.8443330856870876e-05, 3.9753330771920444e-05, 4.406999716240374e-05, 0.0, 0.0, 56.852441760105194]], 'compliance_tensor': [[22.2, -9.9, -9.9, -0.0, 0.0, -0.0], [-9.9, 22.2, -9.9, -0.0, -0.0, 0.0], [-9.9, -9.9, 22.2, 0.0, -0.0, -0.0], [-0.0, -0.0, 0.0, 17.6, -0.0, -0.0], [0.0, -0.0, -0.0, -0.0, 17.6, -0.0], [-0.0, 0.0, -0.0, -0.0, -0.0, 17.6]], 'warnings': [], 'nsites': 4}",0,34,136,2.31,0.39,94.52
225,mp-864878,ZrAlAu2,"{'Zr': 1.0, 'Al': 1.0, 'Au': 2.0}",0.192158263,11.49569137,"{'G_Reuss': 6.0, 'G_VRH': 15.0, 'G_Voigt': 23.0, 'G_Voigt_Reuss_Hill': 15.0, 'K_Reuss': 135.0, 'K_VRH': 135.0, 'K_Voigt': 135.0, 'K_Voigt_Reuss_Hill': 135.0, 'elastic_anisotropy': 14.7, 'elastic_tensor': [[138.0, 133.0, 133.0, 0.0, 0.0, 0.0], [133.0, 138.0, 133.0, 0.0, 0.0, 0.0], [133.0, 133.0, 138.0, 0.0, 0.0, 0.0], [0.0, 0.0, 0.0, 37.0, 0.0, 0.0], [0.0, 0.0, 0.0, 0.0, 37.0, 0.0], [0.0, 0.0, 0.0, 0.0, 0.0, 37.0]], 'homogeneous_poisson': 0.45, 'poisson_ratio': 0.45, 'universal_anisotropy': 14.7, 'elastic_tensor_original': [[141.03142922510014, 131.736011621572, 131.7360261451439, 2.2104557282470306e-05, 2.1665658130652305e-05, -3.4712932916514755e-06], [134.10662485269177, 134.77714352312378, 134.10662485269177, 0.0, 0.0, 0.0], [132.65156946975463, 132.65156946975463, 138.3597369279907, 0.0, 0.0, 0.0], [0.004645234014875089, 0.004423207474953312, 0.00444955079324784, 37.055291399826864, 0.0, 0.0], [0.002657808482754662, -0.0034875313424284175, 0.0005375996931039818, 0.0, 37.019349610344705, 0.0], [0.008971948211577254, 0.00925103805225501, 0.010901633776657501, 0.0, 0.0, 37.05296445782189]], 'compliance_tensor': [[128.4, -63.0, -63.0, 0.0, 0.0, 0.0], [-63.0, 128.4, -63.0, 0.0, -0.0, 0.0], [-63.0, -63.0, 128.4, -0.0, 0.0, -0.0], [0.0, 0.0, -0.0, 27.0, -0.0, 0.0], [0.0, -0.0, 0.0, -0.0, 27.0, -0.0], [0.0, 0.0, -0.0, 0.0, -0.0, 27.0]], 'warnings': ['c11 and c12 are within 5% or c12 is greater than c11', 'c11 and c13 are within 5% or c13 is greater than c11', 'c11 and c23 are within 5% or c23 is greater than c11'], 'nsites': 4}",0,15,135,14.7,0.45,43.5
226,mp-864907,MgZrPd2,"{'Mg': 1.0, 'Zr': 1.0, 'Pd': 2.0}",0.146652171,7.684728477,"{'G_Reuss': 32.0, 'G_VRH': 35.0, 'G_Voigt': 37.0, 'G_Voigt_Reuss_Hill': 35.0, 'K_Reuss': 119.0, 'K_VRH': 119.0, 'K_Voigt': 119.0, 'K_Voigt_Reuss_Hill': 119.0, 'elastic_anisotropy': 0.73, 'elastic_tensor': [[148.0, 104.0, 104.0, 0.0, 0.0, 0.0], [104.0, 148.0, 104.0, 0.0, 0.0, 0.0], [104.0, 104.0, 148.0, 0.0, 0.0, 0.0], [0.0, 0.0, 0.0, 47.0, 0.0, 0.0], [0.0, 0.0, 0.0, 0.0, 47.0, 0.0], [0.0, 0.0, 0.0, 0.0, 0.0, 47.0]], 'homogeneous_poisson': 0.37, 'poisson_ratio': 0.37, 'universal_anisotropy': 0.73, 'elastic_tensor_original': [[147.96633385253514, 104.03030911339206, 104.03030911339206, 0.0, 0.0, 0.0], [104.03467625993362, 147.97177608243314, 104.03467625993362, 0.0, 0.0, 0.0], [104.05278393842113, 104.05278393842113, 147.98911611496874, 0.0, 0.0, 0.0], [0.00018618667095731347, -0.0002971101189824349, -0.0002531801096322977, 46.971156384064884, 0.0, 0.0], [-0.0003902901173892055, 0.001412090300469686, -0.0002582700920084634, 0.0, 46.96878448663061, 0.0], [-0.0006046834795520642, -0.00050678011868652, 0.0007325535574617846, 0.0, 0.0, 46.96958904686964]], 'compliance_tensor': [[16.1, -6.7, -6.7, 0.0, -0.0, 0.0], [-6.7, 16.1, -6.7, 0.0, 0.0, -0.0], [-6.7, -6.7, 16.1, -0.0, 0.0, 0.0], [0.0, 0.0, -0.0, 21.3, -0.0, -0.0], [-0.0, 0.0, 0.0, -0.0, 21.3, -0.0], [0.0, -0.0, 0.0, -0.0, -0.0, 21.3]], 'warnings': [], 'nsites': 4}",0,35,119,0.73,0.37,95.9
227,mp-864910,MgZrRh2,"{'Mg': 1.0, 'Zr': 1.0, 'Rh': 2.0}",0.13222625,8.024352151,"{'G_Reuss': 67.0, 'G_VRH': 67.0, 'G_Voigt': 67.0, 'G_Voigt_Reuss_Hill': 67.0, 'K_Reuss': 149.0, 'K_VRH': 149.0, 'K_Voigt': 149.0, 'K_Voigt_Reuss_Hill': 149.0, 'elastic_anisotropy': 0.01, 'elastic_tensor': [[233.0, 107.0, 107.0, 0.0, 0.0, 0.0], [107.0, 233.0, 107.0, 0.0, 0.0, 0.0], [107.0, 107.0, 233.0, 0.0, 0.0, 0.0], [0.0, 0.0, 0.0, 70.0, 0.0, 0.0], [0.0, 0.0, 0.0, 0.0, 70.0, 0.0], [0.0, 0.0, 0.0, 0.0, 0.0, 70.0]], 'homogeneous_poisson': 0.3, 'poisson_ratio': 0.3, 'universal_anisotropy': 0.01, 'elastic_tensor_original': [[232.2647696362398, 106.99761001637359, 106.99648604321733, 3.472629741181226e-05, -0.00016011790480989184, -2.3799142625762787e-05], [106.92478912794309, 232.19161559956783, 106.9256209951946, 0.00012358712312148426, 2.0711469530255234e-05, 0.00011456470173850764], [107.56846356675544, 107.56846356675544, 234.20124363930623, 0.0, 0.0, 0.0], [8.889989525979655e-06, 2.4733304192707105e-06, 8.533323283462166e-07, 69.6446838321126, 0.0, 0.0], [9.205322486944108e-05, 0.00012719651679389858, 0.00012684318387610758, 0.0, 69.64458461222952, 0.0], [0.0001885397778480677, 0.00017628312562216502, 4.858994274711881e-05, 0.0, 0.0, 69.64465548881266]], 'compliance_tensor': [[6.0, -1.9, -1.9, 0.0, -0.0, -0.0], [-1.9, 6.0, -1.9, -0.0, 0.0, -0.0], [-1.9, -1.9, 6.0, -0.0, -0.0, 0.0], [0.0, -0.0, -0.0, 14.4, -0.0, 0.0], [-0.0, 0.0, -0.0, -0.0, 14.4, -0.0], [-0.0, -0.0, 0.0, 0.0, -0.0, 14.4]], 'warnings': [], 'nsites': 4}",0,67,149,0.01,0.3,174.2
228,mp-864920,MgZrAu2,"{'Mg': 1.0, 'Zr': 1.0, 'Au': 2.0}",0.2027903,11.0032277,"{'G_Reuss': 28.0, 'G_VRH': 32.0, 'G_Voigt': 37.0, 'G_Voigt_Reuss_Hill': 32.0, 'K_Reuss': 117.0, 'K_VRH': 117.0, 'K_Voigt': 117.0, 'K_Voigt_Reuss_Hill': 117.0, 'elastic_anisotropy': 1.55, 'elastic_tensor': [[139.0, 106.0, 106.0, 0.0, 0.0, 0.0], [106.0, 139.0, 106.0, 0.0, 0.0, 0.0], [106.0, 106.0, 139.0, 0.0, 0.0, 0.0], [0.0, 0.0, 0.0, 50.0, 0.0, 0.0], [0.0, 0.0, 0.0, 0.0, 50.0, 0.0], [0.0, 0.0, 0.0, 0.0, 0.0, 50.0]], 'homogeneous_poisson': 0.37, 'poisson_ratio': 0.37, 'universal_anisotropy': 1.55, 'elastic_tensor_original': [[139.29680991692476, 105.61016648005972, 105.61016648005972, 0.0, 0.0, 0.0], [105.60958454769202, 139.29849639010666, 105.60958454769202, 0.0, 0.0, 0.0], [105.60210236152857, 105.60210236152857, 139.29095290995895, 0.0, 0.0, 0.0], [0.026550692333830974, 0.025167213601744277, 0.015197099405691496, 49.75333472937175, 0.0, 0.0], [-0.013104764656580729, -0.017181584253641417, -0.01090234667502455, 0.0, 49.75543690411184, 0.0], [0.013602584200346848, 0.011184736416223542, 0.016943871138166745, 0.0, 0.0, 49.75369802570547]], 'compliance_tensor': [[20.7, -8.9, -8.9, 0.0, -0.0, 0.0], [-8.9, 20.7, -8.9, 0.0, 0.0, -0.0], [-8.9, -8.9, 20.7, -0.0, 0.0, 0.0], [0.0, 0.0, -0.0, 20.1, -0.0, -0.0], [-0.0, 0.0, 0.0, -0.0, 20.1, -0.0], [0.0, -0.0, 0.0, -0.0, -0.0, 20.1]], 'warnings': [], 'nsites': 4}",0,32,117,1.55,0.37,87.68
229,mp-865434,LuZrRu2,"{'Lu': 1.0, 'Zr': 1.0, 'Ru': 2.0}",0.128666115,10.77647713,"{'G_Reuss': 68.0, 'G_VRH': 71.0, 'G_Voigt': 74.0, 'G_Voigt_Reuss_Hill': 71.0, 'K_Reuss': 157.0, 'K_VRH': 157.0, 'K_Voigt': 157.0, 'K_Voigt_Reuss_Hill': 157.0, 'elastic_anisotropy': 0.44, 'elastic_tensor': [[291.0, 90.0, 90.0, 0.0, 0.0, 0.0], [90.0, 291.0, 90.0, 0.0, 0.0, 0.0], [90.0, 90.0, 291.0, 0.0, 0.0, 0.0], [0.0, 0.0, 0.0, 56.0, 0.0, 0.0], [0.0, 0.0, 0.0, 0.0, 56.0, 0.0], [0.0, 0.0, 0.0, 0.0, 0.0, 56.0]], 'homogeneous_poisson': 0.3, 'poisson_ratio': 0.3, 'universal_anisotropy': 0.44, 'elastic_tensor_original': [[290.7508935386178, 89.51057384227943, 89.51057384227943, 0.0, 0.0, 0.0], [89.51057384227943, 290.7508935386178, 89.51057384227943, 0.0, 0.0, 0.0], [89.51057384227943, 89.51057384227943, 290.7508935386178, 0.0, 0.0, 0.0], [0.0, 0.0, 0.0, 55.55097649526391, 0.0, 0.0], [0.0, 0.0, 0.0, 0.0, 55.55097649526391, 0.0], [0.0, 0.0, 0.0, 0.0, 0.0, 55.55097649526391]], 'compliance_tensor': [[4.0, -0.9, -0.9, 0.0, -0.0, 0.0], [-0.9, 4.0, -0.9, -0.0, 0.0, -0.0], [-0.9, -0.9, 4.0, -0.0, -0.0, 0.0], [0.0, -0.0, -0.0, 18.0, 0.0, -0.0], [-0.0, 0.0, -0.0, 0.0, 18.0, -0.0], [0.0, -0.0, 0.0, -0.0, -0.0, 18.0]], 'warnings': ['Contains a rare earth element'], 'nsites': 4}",0,71,157,0.44,0.3,184.6
230,mp-865866,LiZrPt2,"{'Li': 1.0, 'Zr': 1.0, 'Pt': 2.0}",0.150806791,12.12196756,"{'G_Reuss': 11.0, 'G_VRH': 17.0, 'G_Voigt': 24.0, 'G_Voigt_Reuss_Hill': 17.0, 'K_Reuss': 140.0, 'K_VRH': 140.0, 'K_Voigt': 140.0, 'K_Voigt_Reuss_Hill': 140.0, 'elastic_anisotropy': 5.92, 'elastic_tensor': [[147.0, 136.0, 136.0, 0.0, 0.0, 0.0], [136.0, 147.0, 136.0, 0.0, 0.0, 0.0], [136.0, 136.0, 147.0, 0.0, 0.0, 0.0], [0.0, 0.0, 0.0, 36.0, 0.0, 0.0], [0.0, 0.0, 0.0, 0.0, 36.0, 0.0], [0.0, 0.0, 0.0, 0.0, 0.0, 36.0]], 'homogeneous_poisson': 0.44, 'poisson_ratio': 0.44, 'universal_anisotropy': 5.92, 'elastic_tensor_original': [[146.83863031674747, 136.28604596408496, 136.28604596408496, 0.0, 0.0, 0.0], [136.28775595585773, 146.839539038809, 136.28775595585773, 0.0, 0.0, 0.0], [136.293436859271, 136.293436859271, 146.8414943424867, 0.0, 0.0, 0.0], [8.966682329164036e-06, -1.71900377370889e-05, -1.34133572795415e-05, 35.81859034342657, 0.0, 0.0], [5.813368150788059e-06, 7.358340160768076e-05, 2.8373375997686048e-05, 0.0, 35.81833812369894, 0.0], [3.4906742231347775e-05, 3.272341602300966e-05, 3.351346198927593e-05, 0.0, 0.0, 35.818572373776135]], 'compliance_tensor': [[64.0, -30.8, -30.8, 0.0, -0.0, 0.0], [-30.8, 64.0, -30.8, -0.0, -0.0, -0.0], [-30.8, -30.8, 64.0, -0.0, 0.0, -0.0], [0.0, -0.0, -0.0, 27.9, -0.0, 0.0], [-0.0, -0.0, 0.0, -0.0, 27.9, -0.0], [0.0, -0.0, -0.0, 0.0, -0.0, 27.9]], 'warnings': [], 'nsites': 4}",0,17,140,5.92,0.44,48.96
231,mp-865893,LiZr2Tc,"{'Li': 1.0, 'Zr': 2.0, 'Tc': 1.0}",0.138653548,6.557078081,"{'G_Reuss': 27.0, 'G_VRH': 29.0, 'G_Voigt': 31.0, 'G_Voigt_Reuss_Hill': 29.0, 'K_Reuss': 115.0, 'K_VRH': 115.0, 'K_Voigt': 115.0, 'K_Voigt_Reuss_Hill': 115.0, 'elastic_anisotropy': 0.71, 'elastic_tensor': [[176.0, 85.0, 85.0, 0.0, 0.0, 0.0], [85.0, 176.0, 85.0, 0.0, 0.0, 0.0], [85.0, 85.0, 176.0, 0.0, 0.0, 0.0], [0.0, 0.0, 0.0, 21.0, 0.0, 0.0], [0.0, 0.0, 0.0, 0.0, 21.0, 0.0], [0.0, 0.0, 0.0, 0.0, 0.0, 21.0]], 'homogeneous_poisson': 0.38, 'poisson_ratio': 0.38, 'universal_anisotropy': 0.71, 'elastic_tensor_original': [[175.57120602777866, 85.30622213719231, 85.30622213719231, 0.0, 0.0, 0.0], [85.32829745609517, 175.59339333960628, 85.32829745609517, 0.0, 0.0, 0.0], [85.32351072586165, 85.32351072586165, 175.58989483963276, 0.0, 0.0, 0.0], [0.0003564398590998591, 0.00018392992729335803, 0.00020326325298402524, 21.280229324617213, 0.0, 0.0], [1.1533328777794234e-06, 4.946664711351244e-05, 1.2453328410249249e-05, 0.0, 21.280575637813644, 0.0], [0.0009335329643096423, 0.0008987263114019966, 0.0009419596276444476, 0.0, 0.0, 21.2806569677815]], 'compliance_tensor': [[8.3, -2.7, -2.7, -0.0, 0.0, -0.0], [-2.7, 8.3, -2.7, -0.0, -0.0, 0.0], [-2.7, -2.7, 8.3, 0.0, -0.0, -0.0], [-0.0, -0.0, 0.0, 47.0, -0.0, -0.0], [0.0, -0.0, -0.0, -0.0, 47.0, -0.0], [-0.0, 0.0, -0.0, -0.0, -0.0, 47.0]], 'warnings': [], 'nsites': 4}",0,29,115,0.71,0.38,80.04
232,mp-9463,ZrGeSb,"{'Zr': 1.0, 'Ge': 1.0, 'Sb': 1.0}",0.108208838,7.361502566,"{'G_Reuss': 72.0, 'G_VRH': 73.0, 'G_Voigt': 75.0, 'G_Voigt_Reuss_Hill': 73.0, 'K_Reuss': 98.0, 'K_VRH': 98.0, 'K_Voigt': 98.0, 'K_Voigt_Reuss_Hill': 98.0, 'elastic_anisotropy': 0.17, 'elastic_tensor': [[174.0, 61.0, 53.0, 0.0, 0.0, 0.0], [61.0, 174.0, 53.0, 0.0, 0.0, 0.0], [53.0, 53.0, 200.0, 0.0, 0.0, 0.0], [0.0, 0.0, 0.0, 73.0, 0.0, 0.0], [0.0, 0.0, 0.0, 0.0, 73.0, 0.0], [0.0, 0.0, 0.0, 0.0, 0.0, 100.0]], 'homogeneous_poisson': 0.2, 'poisson_ratio': 0.2, 'universal_anisotropy': 0.17, 'elastic_tensor_original': [[173.58423232973345, 60.92531825507632, 53.4641015784174, 0.0, 0.0, 0.0], [60.92684883398154, 173.58603241911848, 53.464667675056155, 0.0, 0.0, 0.0], [52.22011330837085, 52.22011330837085, 200.2395279908502, 0.0, 0.0, 0.0], [-0.00031523640792970785, -0.00015829932365173316, -7.365990190949839e-05, 73.33516514982162, 0.0, 0.0], [-0.0002934699061362411, -0.0004891066682963873, -0.0002664698786600194, 0.0, 73.33496399589296, 0.0], [-0.00020367643912762602, -0.00015184995228972254, -0.0001803133313185221, 0.0, 0.0, 100.08933868065193]], 'compliance_tensor': [[6.9, -2.0, -1.3, -0.0, 0.0, 0.0], [-2.0, 6.9, -1.3, 0.0, 0.0, -0.0], [-1.3, -1.3, 5.7, 0.0, 0.0, -0.0], [-0.0, 0.0, 0.0, 13.6, 0.0, -0.0], [0.0, 0.0, 0.0, 0.0, 13.6, 0.0], [0.0, -0.0, -0.0, -0.0, 0.0, 10.0]], 'warnings': [], 'nsites': 6}",0,73,98,0.17,0.2,175.2
233,mp-977550,ZrScOs2,"{'Zr': 1.0, 'Sc': 1.0, 'Os': 2.0}",0.117584412,12.4209096,"{'G_Reuss': 83.0, 'G_VRH': 83.0, 'G_Voigt': 84.0, 'G_Voigt_Reuss_Hill': 83.0, 'K_Reuss': 191.0, 'K_VRH': 191.0, 'K_Voigt': 191.0, 'K_Voigt_Reuss_Hill': 191.0, 'elastic_anisotropy': 0.05, 'elastic_tensor': [[315.0, 128.0, 128.0, 0.0, 0.0, 0.0], [128.0, 315.0, 128.0, 0.0, 0.0, 0.0], [128.0, 128.0, 315.0, 0.0, 0.0, 0.0], [0.0, 0.0, 0.0, 77.0, 0.0, 0.0], [0.0, 0.0, 0.0, 0.0, 77.0, 0.0], [0.0, 0.0, 0.0, 0.0, 0.0, 77.0]], 'homogeneous_poisson': 0.31, 'poisson_ratio': 0.31, 'universal_anisotropy': 0.05, 'elastic_tensor_original': [[315.34425450534724, 128.42460547546014, 128.42460547546014, 0.03594296318758013, -0.05199221466209139, 0.05199221466209139], [128.42460547546014, 315.34425450534724, 128.42460547546014, -0.0519922146620757, -0.03594296318757105, -0.05200401484698099], [128.42460547546014, 128.42460547546014, 315.34425450534724, -0.0520040148469719, -0.05200401484697191, -0.03594296318758013], [0.0, 0.0, 0.0, 77.00922761246875, 0.0, 0.0], [0.0, 0.0, 0.0, 0.0, 77.00922761246875, 0.0], [0.0, 0.0, 0.0, 0.0, 0.0, 77.00922761246875]], 'compliance_tensor': [[4.1, -1.2, -1.2, 0.0, -0.0, 0.0], [-1.2, 4.1, -1.2, -0.0, 0.0, -0.0], [-1.2, -1.2, 4.1, -0.0, -0.0, 0.0], [0.0, -0.0, -0.0, 13.0, 0.0, -0.0], [-0.0, 0.0, -0.0, 0.0, 13.0, -0.0], [0.0, -0.0, 0.0, -0.0, -0.0, 13.0]], 'warnings': [], 'nsites': 4}",0,83,191,0.05,0.31,217.46