,mp_id,Formula,Composition,IPF,Density,Elastic_Tensor,E_above_Hull,G_VRH,K_VRH,Elastic_Anisotropy,poisson_ratio,Y_Modulus
208,mp-31438,YZrSb,"{'Y': 1.0, 'Zr': 1.0, 'Sb': 1.0}",0.127837124,6.558519163,"{'G_Reuss': 38.0, 'G_VRH': 41.0, 'G_Voigt': 44.0, 'G_Voigt_Reuss_Hill': 41.0, 'K_Reuss': 80.0, 'K_VRH': 80.0, 'K_Voigt': 80.0, 'K_Voigt_Reuss_Hill': 80.0, 'elastic_anisotropy': 0.77, 'elastic_tensor': [[115.0, 73.0, 47.0, 0.0, 0.0, 0.0], [73.0, 115.0, 47.0, 0.0, 0.0, 0.0], [47.0, 47.0, 159.0, 0.0, 0.0, 0.0], [0.0, 0.0, 0.0, 42.0, 0.0, 0.0], [0.0, 0.0, 0.0, 0.0, 42.0, 0.0], [0.0, 0.0, 0.0, 0.0, 0.0, 64.0]], 'homogeneous_poisson': 0.28, 'poisson_ratio': 0.28, 'universal_anisotropy': 0.77, 'elastic_tensor_original': [[114.50776574501897, 72.60281817583639, 47.771842282961245, 0.0, 0.0, 0.0], [72.601440395254, 114.50619039091328, 47.771638101198896, 0.0, 0.0, 0.0], [46.39047861300871, 46.39047861300871, 159.43975668657245, 0.0, 0.0, 0.0], [-0.00019113025107593743, -0.00020627360430190648, -0.0002762303628669166, 41.709011827201, 0.0, 0.0], [0.0004154472124144163, 3.17600417213841e-05, 0.0013438784320359822, 0.0, 41.709468221133875, 0.0], [-7.011676576176878e-05, -7.908677843871877e-05, 0.0001648102329230996, 0.0, 0.0, 63.810615852431404]], 'compliance_tensor': [[15.1, -8.8, -1.9, -0.0, -0.0, 0.0], [-8.8, 15.1, -1.9, -0.0, 0.0, 0.0], [-1.9, -1.9, 7.4, 0.0, 0.0, 0.0], [-0.0, -0.0, 0.0, 24.0, 0.0, 0.0], [-0.0, 0.0, 0.0, 0.0, 24.0, 0.0], [0.0, 0.0, 0.0, 0.0, 0.0, 15.7]], 'warnings': [], 'nsites': 6}",0,41,80,0.77,0.28,104.96
209,mp-31451,ZrCoBi,"{'Zr': 1.0, 'Co': 1.0, 'Bi': 1.0}",0.151825787,9.832643521,"{'G_Reuss': 60.0, 'G_VRH': 62.0, 'G_Voigt': 64.0, 'G_Voigt_Reuss_Hill': 62.0, 'K_Reuss': 117.0, 'K_VRH': 117.0, 'K_Voigt': 117.0, 'K_Voigt_Reuss_Hill': 117.0, 'elastic_anisotropy': 0.3, 'elastic_tensor': [[229.0, 61.0, 61.0, 0.0, 0.0, 0.0], [61.0, 229.0, 61.0, 0.0, 0.0, 0.0], [61.0, 61.0, 229.0, 0.0, 0.0, 0.0], [0.0, 0.0, 0.0, 51.0, 0.0, 0.0], [0.0, 0.0, 0.0, 0.0, 51.0, 0.0], [0.0, 0.0, 0.0, 0.0, 0.0, 51.0]], 'homogeneous_poisson': 0.27, 'poisson_ratio': 0.27, 'universal_anisotropy': 0.3, 'elastic_tensor_original': [[228.74192435082293, 60.851015324797885, 60.851015324797885, 0.0, 0.0, 0.0], [60.84151748817715, 228.73237967979009, 60.84151748817715, 0.0, 0.0, 0.0], [60.850246515758776, 60.850246515758776, 228.74151879628369, 0.0, 0.0, 0.0], [6.889326388177356e-05, 0.00012362320870780433, 0.0002698263946510707, 50.97678936619542, 0.0, 0.0], [-0.0004009895957552137, -0.000683969310479946, -0.0004741761886422291, 0.0, 50.976914666069106, 0.0], [-3.27833002834461e-05, 0.00012118654449708058, -0.0001260332062775592, 0.0, 0.0, 50.97676888288273]], 'compliance_tensor': [[4.9, -1.0, -1.0, 0.0, -0.0, 0.0], [-1.0, 4.9, -1.0, 0.0, -0.0, -0.0], [-1.0, -1.0, 4.9, -0.0, 0.0, -0.0], [0.0, 0.0, -0.0, 19.6, -0.0, -0.0], [-0.0, -0.0, 0.0, -0.0, 19.6, -0.0], [0.0, -0.0, -0.0, -0.0, -0.0, 19.6]], 'warnings': [], 'nsites': 3}",0,62,117,0.3,0.27,157.48
210,mp-3834,BaZrO3,"{'Ba': 1.0, 'Zr': 1.0, 'O': 3.0}",0.540492356,5.958155707,"{'G_Reuss': 91.0, 'G_VRH': 92.0, 'G_Voigt': 93.0, 'G_Voigt_Reuss_Hill': 92.0, 'K_Reuss': 149.0, 'K_VRH': 149.0, 'K_Voigt': 149.0, 'K_Voigt_Reuss_Hill': 149.0, 'elastic_anisotropy': 0.09, 'elastic_tensor': [[292.0, 77.0, 77.0, 0.0, 0.0, 0.0], [77.0, 292.0, 77.0, 0.0, 0.0, 0.0], [77.0, 77.0, 292.0, 0.0, 0.0, 0.0], [0.0, 0.0, 0.0, 82.0, 0.0, 0.0], [0.0, 0.0, 0.0, 0.0, 82.0, 0.0], [0.0, 0.0, 0.0, 0.0, 0.0, 82.0]], 'homogeneous_poisson': 0.24, 'poisson_ratio': 0.24, 'universal_anisotropy': 0.09, 'elastic_tensor_original': [[292.37886279986924, 77.0480621712689, 77.0480621712689, 0.0, 0.0, 0.0], [77.16768548020818, 292.4789878759339, 77.16768548020818, 0.0, 0.0, 0.0], [77.05060310823275, 77.05060310823275, 292.3806086887719, 0.0, 0.0, 0.0], [9.200668007513214e-05, 9.113001328065249e-05, 0.0001623200236550102, 82.47778073294091, 0.0, 0.0], [0.0007168034377943892, 0.0006542234286745105, 0.0005526434138707816, 0.0, 82.47772171293232, 0.0], [-0.00030940337842293825, -0.0003122467121712127, -0.00017388669200723813, 0.0, 0.0, 82.47775045293652]], 'compliance_tensor': [[3.8, -0.8, -0.8, 0.0, -0.0, -0.0], [-0.8, 3.8, -0.8, -0.0, 0.0, -0.0], [-0.8, -0.8, 3.8, -0.0, -0.0, 0.0], [0.0, -0.0, -0.0, 12.1, -0.0, -0.0], [-0.0, 0.0, -0.0, -0.0, 12.1, -0.0], [-0.0, -0.0, 0.0, -0.0, -0.0, 12.1]], 'warnings': [], 'nsites': 5}",0,92,149,0.09,0.24,228.16
211,mp-4387,SrZrO3,"{'Sr': 1.0, 'Zr': 1.0, 'O': 3.0}",0.52198798,5.252253634,"{'G_Reuss': 87.0, 'G_VRH': 88.0, 'G_Voigt': 89.0, 'G_Voigt_Reuss_Hill': 88.0, 'K_Reuss': 145.0, 'K_VRH': 146.0, 'K_Voigt': 146.0, 'K_Voigt_Reuss_Hill': 146.0, 'elastic_anisotropy': 0.11, 'elastic_tensor': [[279.0, 83.0, 105.0, 0.0, 0.0, 0.0], [83.0, 280.0, 72.0, 0.0, 0.0, 0.0], [105.0, 72.0, 238.0, 0.0, 0.0, 0.0], [0.0, 0.0, 0.0, 73.0, 0.0, 0.0], [0.0, 0.0, 0.0, 0.0, 99.0, 0.0], [0.0, 0.0, 0.0, 0.0, 0.0, 93.0]], 'homogeneous_poisson': 0.25, 'poisson_ratio': 0.25, 'universal_anisotropy': 0.11, 'elastic_tensor_original': [[279.20007309453655, 76.1105687766418, 83.83969242150962, 0.0, 0.0, 0.0], [90.29491715899823, 280.33788990526784, 75.89138386349643, 0.0, 0.0, 0.0], [125.39545666352839, 68.43245931412372, 237.59574744460832, 0.0, 0.0, 0.0], [0.0, 0.0, 0.0, 73.24883497710579, 0.0, 0.0], [0.0, 0.0, 0.0, 0.0, 99.27903106361498, 0.0], [0.0, 0.0, 0.0, 0.0, 0.0, 92.8489574905166]], 'compliance_tensor': [[4.486311160917895, -0.89282435943784, -1.70423534610749, 0.0, 0.0, 0.0], [-0.8928243594378403, 4.047335177415755, -0.8361191935295791, 0.0, 0.0, 0.0], [-1.70423534610749, -0.8361191935295791, 5.213178052904938, 0.0, 0.0, 0.0], [0.0, 0.0, 0.0, 13.652094266244015, 0.0, 0.0], [0.0, 0.0, 0.0, 0.0, 10.072620464629942, 0.0], [0.0, 0.0, 0.0, 0.0, 0.0, 10.770180161711973]], 'warnings': [], 'nsites': 20}",0,88,146,0.11,0.25,220
212,mp-4500,ZrNbP,"{'Zr': 1.0, 'Nb': 1.0, 'P': 1.0}",0.109448315,6.893886775,"{'G_Reuss': 97.0, 'G_VRH': 99.0, 'G_Voigt': 102.0, 'G_Voigt_Reuss_Hill': 99.0, 'K_Reuss': 174.0, 'K_VRH': 174.0, 'K_Voigt': 174.0, 'K_Voigt_Reuss_Hill': 174.0, 'elastic_anisotropy': 0.28, 'elastic_tensor': [[299.0, 85.0, 139.0, 0.0, 0.0, 0.0], [85.0, 320.0, 114.0, 0.0, 0.0, 0.0], [139.0, 114.0, 270.0, 0.0, 0.0, 0.0], [0.0, 0.0, 0.0, 117.0, 0.0, 0.0], [0.0, 0.0, 0.0, 0.0, 126.0, 0.0], [0.0, 0.0, 0.0, 0.0, 0.0, 82.0]], 'homogeneous_poisson': 0.26, 'poisson_ratio': 0.26, 'universal_anisotropy': 0.28, 'elastic_tensor_original': [[269.8338312437677, 138.38478788096566, 114.369970702138, 0.0, 0.0, 0.0], [139.6674816154531, 298.77920618867915, 84.23659847361563, 0.0, 0.0, 0.0], [113.43801057881213, 85.05449551511511, 319.966580948475, 0.0, 0.0, 0.0], [-0.00010950005471438239, 0.0003664534183614354, -0.0004615665289339605, 82.42639176653479, 0.0, 0.0], [-0.000585522867845595, 0.004603532914836534, 0.002941795481473682, 0.0, 117.48507244724229, 0.0], [-0.00801315119863734, -0.009212629729083212, -0.0029844888866986004, 0.0, 0.0, 126.15281113867722]], 'compliance_tensor': [[4.5, -0.4, -2.1, 0.0, -0.0, 0.0], [-0.4, 3.7, -1.4, 0.0, -0.0, 0.0], [-2.1, -1.4, 5.4, 0.0, 0.0, 0.0], [0.0, 0.0, 0.0, 8.5, 0.0, 0.0], [-0.0, -0.0, 0.0, 0.0, 7.9, 0.0], [0.0, 0.0, 0.0, 0.0, 0.0, 12.1]], 'warnings': [], 'nsites': 12}",0,99,174,0.28,0.26,249.48
213,mp-4571,CaZrO3,"{'Ca': 1.0, 'Zr': 1.0, 'O': 3.0}",0.510173577,4.466539979,"{'G_Reuss': 85.0, 'G_VRH': 85.0, 'G_Voigt': 86.0, 'G_Voigt_Reuss_Hill': 85.0, 'K_Reuss': 148.0, 'K_VRH': 148.0, 'K_Voigt': 149.0, 'K_Voigt_Reuss_Hill': 148.0, 'elastic_anisotropy': 0.05, 'elastic_tensor': [[284.0, 82.0, 107.0, 0.0, 0.0, 0.0], [82.0, 269.0, 80.0, 0.0, 0.0, 0.0], [107.0, 80.0, 245.0, 0.0, 0.0, 0.0], [0.0, 0.0, 0.0, 77.0, 0.0, 0.0], [0.0, 0.0, 0.0, 0.0, 89.0, 0.0], [0.0, 0.0, 0.0, 0.0, 0.0, 86.0]], 'homogeneous_poisson': 0.26, 'poisson_ratio': 0.26, 'universal_anisotropy': 0.05, 'elastic_tensor_original': [[244.71862428328086, 107.16853292482924, 79.17392323066294, 0.0, 0.0, 0.0], [107.46312286592865, 284.3303597666063, 81.94191876849882, 0.0, 0.0, 0.0], [81.56148055618668, 82.04334449413506, 269.20772297306564, 0.0, 0.0, 0.0], [-0.00010254995642781565, -6.392661327432206e-05, -5.552665334997099e-05, 85.53172157918083, 0.0, 0.0], [-0.0006848701475349971, 0.0007957568380904888, -0.0004114334219660598, 0.0, 76.88351159577928, 0.0], [-6.216668263579786e-06, 2.934000754274644e-05, -1.8803338167379224e-05, 0.0, 0.0, 89.2659419438731]], 'compliance_tensor': [[4.4, -0.8, -1.6, 0.0, 0.0, -0.0], [-0.8, 4.3, -1.0, 0.0, 0.0, 0.0], [-1.6, -1.0, 5.1, 0.0, 0.0, 0.0], [0.0, 0.0, 0.0, 13.0, 0.0, 0.0], [0.0, 0.0, 0.0, 0.0, 11.2, 0.0], [-0.0, 0.0, 0.0, 0.0, 0.0, 11.7]], 'warnings': [], 'nsites': 20}",0,85,148,0.05,0.26,214.2
214,mp-4820,ZrSiO4,"{'Zr': 1.0, 'Si': 1.0, 'O': 4.0}",0.542160258,4.479509051,"{'G_Reuss': 87.0, 'G_VRH': 96.0, 'G_Voigt': 104.0, 'G_Voigt_Reuss_Hill': 96.0, 'K_Reuss': 200.0, 'K_VRH': 203.0, 'K_Voigt': 207.0, 'K_Voigt_Reuss_Hill': 203.0, 'elastic_anisotropy': 1.02, 'elastic_tensor': [[439.0, 142.0, 142.0, 0.0, 0.0, 0.0], [142.0, 372.0, 57.0, 0.0, 0.0, 0.0], [142.0, 57.0, 372.0, 0.0, 0.0, 0.0], [0.0, 0.0, 0.0, 45.0, 0.0, 0.0], [0.0, 0.0, 0.0, 0.0, 98.0, 0.0], [0.0, 0.0, 0.0, 0.0, 0.0, 98.0]], 'homogeneous_poisson': 0.3, 'poisson_ratio': 0.3, 'universal_anisotropy': 1.02, 'elastic_tensor_original': [[371.82114590191856, 55.771845779377685, 141.666001832759, 0.0, 0.0, 0.0], [57.761779979882434, 371.9456170083111, 141.61216227881613, 0.0, 0.0, 0.0], [141.63048130004594, 141.63048130004594, 438.7497517770034, 0.0, 0.0, 0.0], [0.00024344690531585622, 0.00023891023420368436, 0.00027173026637463386, 97.76253944588412, 0.0, 0.0], [-9.248342399182676e-05, -0.00010141009941156933, -4.596004505502002e-05, 0.0, 97.78296101256988, 0.0], [0.00014922014764218357, 0.00024250023993430044, 2.5796692190301382e-05, 0.0, 0.0, 45.10172756782575]], 'compliance_tensor': [[2.9, -1.0, -1.0, 0.0, -0.0, 0.0], [-1.0, 3.1, -0.1, 0.0, 0.0, 0.0], [-1.0, -0.1, 3.1, 0.0, -0.0, 0.0], [0.0, 0.0, 0.0, 22.2, 0.0, 0.0], [-0.0, 0.0, -0.0, 0.0, 10.2, 0.0], [0.0, 0.0, 0.0, 0.0, 0.0, 10.2]], 'warnings': [], 'nsites': 12}",0,96,203,1.02,0.3,249.6
215,mp-4878,ZrGeSe,"{'Zr': 1.0, 'Ge': 1.0, 'Se': 1.0}",0.152185406,6.867661029,"{'G_Reuss': 65.0, 'G_VRH': 68.0, 'G_Voigt': 70.0, 'G_Voigt_Reuss_Hill': 68.0, 'K_Reuss': 102.0, 'K_VRH': 102.0, 'K_Voigt': 103.0, 'K_Voigt_Reuss_Hill': 102.0, 'elastic_anisotropy': 0.35, 'elastic_tensor': [[190.0, 61.0, 69.0, 0.0, 0.0, 0.0], [61.0, 190.0, 69.0, 0.0, 0.0, 0.0], [69.0, 69.0, 148.0, 0.0, 0.0, 0.0], [0.0, 0.0, 0.0, 70.0, 0.0, 0.0], [0.0, 0.0, 0.0, 0.0, 70.0, 0.0], [0.0, 0.0, 0.0, 0.0, 0.0, 99.0]], 'homogeneous_poisson': 0.23, 'poisson_ratio': 0.23, 'universal_anisotropy': 0.35, 'elastic_tensor_original': [[189.78384316087187, 60.51148339691689, 68.69953281040866, 0.0, 0.0, 0.0], [60.511740984435086, 189.78440629234575, 68.7007109942072, 0.0, 0.0, 0.0], [69.78443750613697, 69.78443750613697, 147.94437104883204, 0.0, 0.0, 0.0], [0.00011493985345997804, 0.00019423652016057133, 5.5563322047847614e-05, 70.49382444151203, 0.0, 0.0], [-1.9816486062328073e-05, -9.29498830387447e-05, 6.893402260071414e-06, 0.0, 70.4938105015283, 0.0], [6.29235191877326e-05, 6.840014165586681e-05, 6.530655499091083e-05, 0.0, 0.0, 99.36904431454293]], 'compliance_tensor': [[6.6, -1.2, -2.5, 0.0, 0.0, 0.0], [-1.2, 6.6, -2.5, 0.0, 0.0, 0.0], [-2.5, -2.5, 9.1, -0.0, 0.0, 0.0], [0.0, 0.0, -0.0, 14.2, 0.0, 0.0], [0.0, 0.0, 0.0, 0.0, 14.2, 0.0], [0.0, 0.0, 0.0, 0.0, 0.0, 10.1]], 'warnings': [], 'nsites': 6}",0,68,102,0.35,0.23,167.28
216,mp-4997,ZrGeS,"{'Zr': 1.0, 'Ge': 1.0, 'S': 1.0}",0.1371199,6.003315142,"{'G_Reuss': 76.0, 'G_VRH': 77.0, 'G_Voigt': 78.0, 'G_Voigt_Reuss_Hill': 77.0, 'K_Reuss': 119.0, 'K_VRH': 119.0, 'K_Voigt': 119.0, 'K_Voigt_Reuss_Hill': 119.0, 'elastic_anisotropy': 0.14, 'elastic_tensor': [[221.0, 76.0, 66.0, 0.0, 0.0, 0.0], [76.0, 221.0, 66.0, 0.0, 0.0, 0.0], [66.0, 66.0, 215.0, 0.0, 0.0, 0.0], [0.0, 0.0, 0.0, 68.0, 0.0, 0.0], [0.0, 0.0, 0.0, 0.0, 68.0, 0.0], [0.0, 0.0, 0.0, 0.0, 0.0, 106.0]], 'homogeneous_poisson': 0.23, 'poisson_ratio': 0.23, 'universal_anisotropy': 0.14, 'elastic_tensor_original': [[220.93148238340817, 75.57938917265977, 66.68017362611631, 0.0, 0.0, 0.0], [75.57876504092319, 220.9299782868508, 66.67932087336185, 0.0, 0.0, 0.0], [66.01836760324375, 66.01836760324375, 215.12924591036935, 0.0, 0.0, 0.0], [-0.00013243022842553554, -0.00014358148383088412, -8.46183747135506e-05, 68.29446421668409, 0.0, 0.0], [-7.841814999198699e-05, 7.051666358925669e-05, 2.81022406525971e-06, 0.0, 68.29466688659906, 0.0], [0.00021298360656224613, 0.00013360197558922639, 9.098337455421228e-05, 0.0, 0.0, 105.8651541319311]], 'compliance_tensor': [[5.4, -1.5, -1.2, 0.0, 0.0, 0.0], [-1.5, 5.4, -1.2, -0.0, 0.0, 0.0], [-1.2, -1.2, 5.4, 0.0, 0.0, 0.0], [0.0, -0.0, 0.0, 14.6, 0.0, 0.0], [0.0, 0.0, 0.0, 0.0, 14.6, 0.0], [0.0, 0.0, 0.0, 0.0, 0.0, 9.4]], 'warnings': [], 'nsites': 6}",0,77,119,0.14,0.23,189.42
217,mp-568592,ZrNCl,"{'Zr': 1.0, 'N': 1.0, 'Cl': 1.0}",0.102444372,4.198985198,"{'G_Reuss': 2.0, 'G_VRH': 13.0, 'G_Voigt': 23.0, 'G_Voigt_Reuss_Hill': 13.0, 'K_Reuss': 3.0, 'K_VRH': 24.0, 'K_Voigt': 45.0, 'K_Voigt_Reuss_Hill': 24.0, 'elastic_anisotropy': 70.8, 'elastic_tensor': [[141.0, 60.0, 1.0, 0.0, 0.0, 0.0], [60.0, 141.0, 1.0, -0.0, 0.0, 0.0], [1.0, 1.0, 3.0, 0.0, 0.0, 0.0], [0.0, -0.0, 0.0, 1.0, 0.0, 0.0], [0.0, 0.0, 0.0, 0.0, 1.0, 0.0], [0.0, 0.0, 0.0, 0.0, 0.0, 40.0]], 'homogeneous_poisson': 0.28, 'poisson_ratio': 0.28, 'universal_anisotropy': 70.8, 'elastic_tensor_original': [[141.19406528585176, 59.72019455571501, 0.12441232253956486, -1.4633863159924836, 0.0, 0.0], [60.40347327483528, 141.36269057486174, 1.156495468574483, 1.1198391092252749, 0.0, 0.0], [0.8104857876021185, 0.8104855082046954, 2.904487354811782, 0.0, 0.0, 0.0], [-0.15560296118769137, 0.2539324799286332, 0.13046509481929253, 0.7988943652353125, 0.0, 0.0], [0.00011432488846339262, 1.3791653211321232e-05, 0.0001847498197559461, 5.3166614796671016e-05, 1.12065338167682, -0.2841083478204122], [0.026905067999552744, -0.01209822194480814, 0.041996980448027396, -0.06528443851374068, -0.05969824506613582, 40.06380772854043]], 'compliance_tensor': [[8.7, -3.7, -1.2, -6.0, 0.0, 0.0], [-3.7, 8.7, -1.2, 6.0, -0.0, 0.0], [-1.2, -1.2, 344.9, -0.0, -0.0, -0.0], [-6.0, 6.0, -0.0, 1047.6, 0.0, -0.0], [0.0, -0.0, -0.0, 0.0, 1047.6, -11.9], [0.0, 0.0, -0.0, -0.0, -11.9, 24.9]], 'warnings': ['One or more K, G below 2 GPa'], 'nsites': 6}",0,13,24,70.8,0.28,33.28
218,mp-5723,ZrAlNi,"{'Zr': 1.0, 'Al': 1.0, 'Ni': 1.0}",0.116916292,6.078613498,"{'G_Reuss': 66.0, 'G_VRH': 71.0, 'G_Voigt': 76.0, 'G_Voigt_Reuss_Hill': 71.0, 'K_Reuss': 138.0, 'K_VRH': 138.0, 'K_Voigt': 138.0, 'K_Voigt_Reuss_Hill': 138.0, 'elastic_anisotropy': 0.69, 'elastic_tensor': [[228.0, 73.0, 115.0, 0.0, 0.0, 0.0], [73.0, 228.0, 115.0, 0.0, 0.0, 0.0], [115.0, 115.0, 186.0, 0.0, 0.0, 0.0], [0.0, 0.0, 0.0, 94.0, 0.0, 0.0], [0.0, 0.0, 0.0, 0.0, 94.0, 0.0], [0.0, 0.0, 0.0, 0.0, 0.0, 77.0]], 'homogeneous_poisson': 0.28, 'poisson_ratio': 0.28, 'universal_anisotropy': 0.69, 'elastic_tensor_original': [[229.19355882797788, 72.54575399375729, 114.99211590498733, 0.0, 0.0, 0.0], [71.21102734419985, 227.86626029245733, 113.32235977267648, 0.0, 0.0, 0.0], [115.04968688270137, 115.04967610224668, 185.93580725738425, 0.0, 0.0, 0.0], [8.451010238625879e-05, 0.00015700389598746184, 0.00015784712052740226, 93.61783139741557, 0.0, 0.0], [-6.387632067526433e-05, -0.00036985605137119414, -9.792291110045933e-05, 0.0, 93.71639370293845, 0.0], [-0.0003359997218415392, -0.0005542061936396585, -0.0006506160758258414, 0.0, 0.0, 76.62945513543546]], 'compliance_tensor': [[6.4, -0.1, -3.9, 0.0, 0.0, -0.0], [-0.1, 6.4, -3.9, 0.0, 0.0, -0.0], [-3.9, -3.9, 10.2, -0.0, -0.0, 0.0], [0.0, 0.0, -0.0, 10.7, -0.0, 0.0], [0.0, 0.0, -0.0, -0.0, 10.7, -0.0], [-0.0, -0.0, 0.0, 0.0, -0.0, 12.9]], 'warnings': [], 'nsites': 9}",0,71,138,0.69,0.28,181.76
219,mp-5848,ErZrSb,"{'Er': 1.0, 'Zr': 1.0, 'Sb': 1.0}",0.128306864,8.406905152,"{'G_Reuss': 34.0, 'G_VRH': 36.0, 'G_Voigt': 39.0, 'G_Voigt_Reuss_Hill': 36.0, 'K_Reuss': 71.0, 'K_VRH': 72.0, 'K_Voigt': 72.0, 'K_Voigt_Reuss_Hill': 72.0, 'elastic_anisotropy': 0.88, 'elastic_tensor': [[99.0, 63.0, 43.0, 0.0, 0.0, 0.0], [63.0, 99.0, 43.0, 0.0, 0.0, 0.0], [43.0, 43.0, 155.0, 0.0, 0.0, 0.0], [0.0, 0.0, 0.0, 37.0, 0.0, 0.0], [0.0, 0.0, 0.0, 0.0, 37.0, 0.0], [0.0, 0.0, 0.0, 0.0, 0.0, 55.0]], 'homogeneous_poisson': 0.28, 'poisson_ratio': 0.28, 'universal_anisotropy': 0.88, 'elastic_tensor_original': [[98.77106104118981, 63.29359357271416, 43.57859958994398, 0.0, 2.599961911538112e-06, 0.0], [63.2935935727148, 98.77106104118981, 43.57859958994398, 2.5999619121656237e-06, 5.2780831202416035e-06, 0.0], [42.38528652489845, 42.38528652489845, 154.59729799109292, 0.0, 0.0, 0.0], [0.0, 4.455037244754088e-06, 0.0, 36.78310338334123, 1.4105824844631867e-07, 2.2275180762997626e-06], [4.455037245490075e-06, 0.0, 0.0, -1.410582484462758e-07, 36.78310338334123, 2.227518531572644e-06], [0.5547839579602045, -0.5547839579601853, 0.0, 0.0, 2.3144609158402924e-08, 55.47506182812231]], 'compliance_tensor': [[17.7, -10.5, -2.0, 0.0, -0.0, 0.0], [-10.5, 17.7, -2.0, -0.0, 0.0, -0.0], [-2.0, -2.0, 7.6, -0.0, -0.0, 0.0], [0.0, -0.0, -0.0, 27.2, 0.0, -0.0], [-0.0, 0.0, -0.0, 0.0, 27.2, -0.0], [0.0, -0.0, 0.0, -0.0, -0.0, 18.0]], 'warnings': ['Contains a rare earth element'], 'nsites': 6}",0,36,72,0.88,0.28,92.16
220,mp-7544,ZrSiRu,"{'Zr': 1.0, 'Si': 1.0, 'Ru': 1.0}",0.093547078,7.550997004,"{'G_Reuss': 98.0, 'G_VRH': 100.0, 'G_Voigt': 102.0, 'G_Voigt_Reuss_Hill': 100.0, 'K_Reuss': 191.0, 'K_VRH': 191.0, 'K_Voigt': 192.0, 'K_Voigt_Reuss_Hill': 191.0, 'elastic_anisotropy': 0.21, 'elastic_tensor': [[324.0, 117.0, 143.0, 0.0, 0.0, 0.0], [117.0, 324.0, 143.0, 0.0, 0.0, 0.0], [143.0, 143.0, 271.0, 0.0, 0.0, 0.0], [0.0, 0.0, 0.0, 118.0, 0.0, 0.0], [0.0, 0.0, 0.0, 0.0, 118.0, 0.0], [0.0, 0.0, 0.0, 0.0, 0.0, 103.0]], 'homogeneous_poisson': 0.28, 'poisson_ratio': 0.28, 'universal_anisotropy': 0.21, 'elastic_tensor_original': [[323.5456418460478, 117.10926796859789, 142.97690463864873, 0.0, 0.0, 0.0], [116.79445588436892, 323.1540772324846, 143.32538931834895, 0.0, 0.0, 0.0], [143.27395106419849, 143.27391120538675, 271.24588408459533, 0.0, 0.0, 0.0], [-2.7613200296145787e-05, 3.868006758682138e-05, 4.804008343161196e-05, 117.84221592021099, 0.0, 0.0], [0.00015921032423508942, 0.0001815503697299898, 0.00013759361354525454, 0.0, 117.91194703910378, 0.0], [-0.0011783772803017707, -0.002089787798634325, -0.0025002347229901483, 0.0, 0.0, 103.70748864643261]], 'compliance_tensor': [[4.1, -0.7, -1.8, 0.0, -0.0, -0.0], [-0.7, 4.1, -1.8, -0.0, -0.0, -0.0], [-1.8, -1.8, 5.6, -0.0, 0.0, 0.0], [0.0, 0.0, -0.0, 8.5, -0.0, -0.0], [-0.0, -0.0, 0.0, -0.0, 8.5, 0.0], [-0.0, -0.0, 0.0, -0.0, 0.0, 9.7]], 'warnings': [], 'nsites': 9}",0,100,191,0.21,0.28,256