,mp_id,Formula,Composition,IPF,Density,Elastic_Tensor,E_above_Hull,G_VRH,K_VRH,Elastic_Anisotropy,poisson_ratio,Y_Modulus
104,mp-15985,Zr3(Cu2Ge)2,"{'Zr': 3.0, 'Cu': 4.0, 'Ge': 2.0}",0.145052489,7.700253096,"{'G_Reuss': 68.0, 'G_VRH': 71.0, 'G_Voigt': 74.0, 'G_Voigt_Reuss_Hill': 71.0, 'K_Reuss': 133.0, 'K_VRH': 133.0, 'K_Voigt': 133.0, 'K_Voigt_Reuss_Hill': 133.0, 'elastic_anisotropy': 0.47, 'elastic_tensor': [[208.0, 79.0, 105.0, 0.0, 0.0, 0.0], [79.0, 208.0, 105.0, 0.0, 0.0, 0.0], [105.0, 105.0, 201.0, 0.0, 0.0, 0.0], [0.0, 0.0, 0.0, 98.0, 0.0, 0.0], [0.0, 0.0, 0.0, 0.0, 98.0, 0.0], [0.0, 0.0, 0.0, 0.0, 0.0, 65.0]], 'homogeneous_poisson': 0.27, 'poisson_ratio': 0.27, 'universal_anisotropy': 0.47, 'elastic_tensor_original': [[209.1160317398188, 77.27892705945173, 104.08072016758443, 0.0, 0.0, 0.0], [77.40882140230921, 210.69651750321702, 105.72225569287096, 0.0, 0.0, 0.0], [105.28232854734121, 105.28234112615804, 200.77551177962175, 0.0, 0.0, 0.0], [-0.00031429033648027225, -0.00016223017368411207, 5.041672064400765e-05, 98.47905868226032, 0.0, 0.0], [-0.0007529074585203772, -0.0001440863598210475, -0.0002980194798583807, 0.0, 98.42523813210275, 0.0], [0.00026339666622303084, 0.00011787331396823798, 0.0006321601664225432, 0.0, 0.0, 63.15297293655369]], 'compliance_tensor': [[6.7, -1.0, -3.0, -0.0, -0.0, 0.0], [-1.0, 6.7, -3.0, 0.0, -0.0, 0.0], [-3.0, -3.0, 8.1, -0.0, 0.0, -0.0], [-0.0, 0.0, -0.0, 10.2, 0.0, -0.0], [-0.0, 0.0, -0.0, 0.0, 10.2, 0.0], [0.0, 0.0, -0.0, 0.0, -0.0, 15.5]], 'warnings': [], 'nsites': 9}",0,71,133,0.47,0.27,180.34
105,mp-20004,Zr2InC,"{'Zr': 2.0, 'In': 1.0, 'C': 1.0}",0.119730044,6.892760851,"{'G_Reuss': 82.0, 'G_VRH': 82.0, 'G_Voigt': 83.0, 'G_Voigt_Reuss_Hill': 82.0, 'K_Reuss': 118.0, 'K_VRH': 119.0, 'K_Voigt': 119.0, 'K_Voigt_Reuss_Hill': 119.0, 'elastic_anisotropy': 0.1, 'elastic_tensor': [[250.0, 62.0, 57.0, 0.0, 0.0, 0.0], [62.0, 250.0, 57.0, 0.0, 0.0, 0.0], [57.0, 57.0, 216.0, 0.0, 0.0, 0.0], [0.0, 0.0, 0.0, 71.0, 0.0, 0.0], [0.0, 0.0, 0.0, 0.0, 71.0, 0.0], [0.0, 0.0, 0.0, 0.0, 0.0, 94.0]], 'homogeneous_poisson': 0.22, 'poisson_ratio': 0.22, 'universal_anisotropy': 0.1, 'elastic_tensor_original': [[251.18495868326238, 59.85605101824796, 56.59856266111901, 0.0, 0.0, 0.0], [60.76242383540055, 252.4000211182736, 58.54425713544379, 0.0, 0.0, 0.0], [57.18972987822673, 57.189695018378984, 216.0024730542873, 0.0, 0.0, 0.0], [0.0002649665582765868, 0.00019084637282326488, 1.6438943553964373e-05, 70.31691681971171, 0.0, 0.0], [0.00022431979524361264, 6.617679468929932e-05, 0.00039646342767576557, 0.0, 70.93840457503622, 0.0], [3.1860438842895986e-05, 5.213594362765517e-06, 8.445999708233278e-05, 0.0, 0.0, 92.91986722561248]], 'compliance_tensor': [[4.4, -0.9, -0.9, -0.0, -0.0, -0.0], [-0.9, 4.4, -0.9, 0.0, -0.0, -0.0], [-0.9, -0.9, 5.1, -0.0, 0.0, 0.0], [-0.0, 0.0, -0.0, 14.2, -0.0, 0.0], [-0.0, -0.0, 0.0, -0.0, 14.2, -0.0], [-0.0, -0.0, 0.0, 0.0, -0.0, 10.6]], 'warnings': [], 'nsites': 8}",0,82,119,0.1,0.22,200.08
106,mp-20147,ZrMnP,"{'Zr': 1.0, 'Mn': 1.0, 'P': 1.0}",0.101750982,6.646876783,"{'G_Reuss': 108.0, 'G_VRH': 111.0, 'G_Voigt': 113.0, 'G_Voigt_Reuss_Hill': 111.0, 'K_Reuss': 174.0, 'K_VRH': 175.0, 'K_Voigt': 175.0, 'K_Voigt_Reuss_Hill': 175.0, 'elastic_anisotropy': 0.25, 'elastic_tensor': [[313.0, 90.0, 137.0, 0.0, 0.0, 0.0], [90.0, 292.0, 114.0, 0.0, 0.0, 0.0], [137.0, 114.0, 288.0, 0.0, 0.0, 0.0], [0.0, 0.0, 0.0, 128.0, 0.0, 0.0], [0.0, 0.0, 0.0, 0.0, 149.0, 0.0], [0.0, 0.0, 0.0, 0.0, 0.0, 106.0]], 'homogeneous_poisson': 0.24, 'poisson_ratio': 0.24, 'universal_anisotropy': 0.25, 'elastic_tensor_original': [[288.33966982084553, 136.01897794290807, 112.08519752100356, 0.0, 0.0, 0.0], [137.18091182937133, 313.10795255689294, 88.81440246953348, 0.0, 0.0, 0.0], [116.62735271927217, 90.21187399164631, 292.25593188327076, 0.0, 0.0, 0.0], [-0.0006795630058841048, -0.0006588730159889508, -0.0006347397271216981, 105.54854998558214, 0.0, 0.0], [-0.0006983951994076328, -0.0007371717846094051, -0.00042158244763070056, 0.0, 127.86741884351136, 0.0], [0.001017254526622912, 0.0009756779474250358, 0.000925714719200884, 0.0, 0.0, 148.58560123730388]], 'compliance_tensor': [[4.1, -0.6, -1.7, 0.0, -0.0, 0.0], [-0.6, 4.1, -1.4, 0.0, 0.0, 0.0], [-1.7, -1.4, 4.8, 0.0, 0.0, 0.0], [0.0, 0.0, 0.0, 7.8, 0.0, 0.0], [-0.0, 0.0, 0.0, 0.0, 6.7, 0.0], [0.0, 0.0, 0.0, 0.0, 0.0, 9.5]], 'warnings': [], 'nsites': 12}",0,111,175,0.25,0.24,275.28
107,mp-20744,ZrInNi2,"{'Zr': 1.0, 'In': 1.0, 'Ni': 2.0}",0.151599598,8.536058956,"{'G_Reuss': 48.0, 'G_VRH': 51.0, 'G_Voigt': 54.0, 'G_Voigt_Reuss_Hill': 51.0, 'K_Reuss': 139.0, 'K_VRH': 139.0, 'K_Voigt': 139.0, 'K_Voigt_Reuss_Hill': 139.0, 'elastic_anisotropy': 0.58, 'elastic_tensor': [[185.0, 117.0, 117.0, 0.0, 0.0, 0.0], [117.0, 185.0, 117.0, 0.0, 0.0, 0.0], [117.0, 117.0, 185.0, 0.0, 0.0, 0.0], [0.0, 0.0, 0.0, 67.0, 0.0, 0.0], [0.0, 0.0, 0.0, 0.0, 67.0, 0.0], [0.0, 0.0, 0.0, 0.0, 0.0, 67.0]], 'homogeneous_poisson': 0.34, 'poisson_ratio': 0.34, 'universal_anisotropy': 0.58, 'elastic_tensor_original': [[180.65397651178463, 116.89121198685217, 116.89121198685217, 0.0, 0.0, 0.0], [116.85891793282347, 186.88795052047763, 116.85891793282347, 0.0, 0.0, 0.0], [116.69509194560463, 116.69509194560463, 186.7239816133257, 0.0, 0.0, 0.0], [0.06818300278869831, 0.05864853181258503, 0.05889842174993514, 67.35950935035906, 0.0, 0.0], [0.04605760928138539, 0.0526680887002856, 0.046561149285646246, 0.0, 67.3571387006839, 0.0], [-0.06778154368666223, -0.06293142162081816, -0.07572811808847592, 0.0, 0.0, 67.35357408817207]], 'compliance_tensor': [[10.6, -4.1, -4.1, -0.0, 0.0, 0.0], [-4.1, 10.6, -4.1, 0.0, -0.0, 0.0], [-4.1, -4.1, 10.6, 0.0, 0.0, -0.0], [-0.0, 0.0, 0.0, 14.8, -0.0, -0.0], [0.0, -0.0, 0.0, -0.0, 14.8, -0.0], [0.0, 0.0, -0.0, -0.0, -0.0, 14.8]], 'warnings': [], 'nsites': 4}",0,51,139,0.58,0.34,136.68
108,mp-20892,ZrFeP,"{'Zr': 1.0, 'Fe': 1.0, 'P': 1.0}",0.14112125,7.004553603,"{'G_Reuss': 117.0, 'G_VRH': 119.0, 'G_Voigt': 120.0, 'G_Voigt_Reuss_Hill': 119.0, 'K_Reuss': 202.0, 'K_VRH': 202.0, 'K_Voigt': 203.0, 'K_Voigt_Reuss_Hill': 202.0, 'elastic_anisotropy': 0.13, 'elastic_tensor': [[349.0, 121.0, 134.0, 0.0, 0.0, 0.0], [121.0, 317.0, 151.0, 0.0, 0.0, 0.0], [134.0, 151.0, 345.0, 0.0, 0.0, 0.0], [0.0, 0.0, 0.0, 137.0, 0.0, 0.0], [0.0, 0.0, 0.0, 0.0, 136.0, 0.0], [0.0, 0.0, 0.0, 0.0, 0.0, 127.0]], 'homogeneous_poisson': 0.25, 'poisson_ratio': 0.25, 'universal_anisotropy': 0.13, 'elastic_tensor_original': [[345.2884949416836, 137.1176968522929, 152.54816132544784, 0.0, 0.0, 0.0], [130.2209651231864, 348.90346749133863, 117.74984964618994, 0.0, 0.0, 0.0], [149.31723381729435, 124.93720963439056, 316.7137455138998, 0.0, 0.0, 0.0], [-0.43229374361568995, -0.43980151646645654, -0.41060195464076016, 127.10600244042884, 0.0, 0.0], [0.0019064709139401219, 0.001915627582661258, 0.0018828107910897202, 0.0, 136.99910019687087, 0.0], [-0.00022561666820380722, -0.00019297340477114616, -0.00026125326756433134, 0.0, 0.0, 135.61507428939035]], 'compliance_tensor': [[3.6, -0.9, -1.0, 0.0, -0.0, 0.0], [-0.9, 4.2, -1.5, 0.0, 0.0, 0.0], [-1.0, -1.5, 3.9, 0.0, 0.0, 0.0], [0.0, 0.0, 0.0, 7.3, 0.0, 0.0], [-0.0, 0.0, 0.0, 0.0, 7.4, 0.0], [0.0, 0.0, 0.0, 0.0, 0.0, 7.9]], 'warnings': [], 'nsites': 12}",0,119,202,0.13,0.25,297.5
109,mp-29153,Zr2NiP,"{'Zr': 2.0, 'Ni': 1.0, 'P': 1.0}",0.114360993,6.691111905,"{'G_Reuss': 82.0, 'G_VRH': 83.0, 'G_Voigt': 85.0, 'G_Voigt_Reuss_Hill': 83.0, 'K_Reuss': 151.0, 'K_VRH': 152.0, 'K_Voigt': 152.0, 'K_Voigt_Reuss_Hill': 152.0, 'elastic_anisotropy': 0.16, 'elastic_tensor': [[232.0, 111.0, 91.0, 0.0, 9.0, 0.0], [111.0, 256.0, 99.0, 0.0, -2.0, 0.0], [91.0, 99.0, 278.0, 0.0, -0.0, 0.0], [0.0, 0.0, 0.0, 92.0, 0.0, -8.0], [9.0, -2.0, -0.0, 0.0, 74.0, 0.0], [0.0, 0.0, 0.0, -8.0, 0.0, 103.0]], 'homogeneous_poisson': 0.27, 'poisson_ratio': 0.27, 'universal_anisotropy': 0.16, 'elastic_tensor_original': [[255.69506350650107, 97.28511544444325, 111.22347324617353, -3.069007993544349, 0.0, 0.0], [100.15552013409258, 278.03825931525586, 92.2443033864331, 0.14197196824680433, 0.0, 0.0], [111.15413160033889, 90.61792682025084, 232.5047177897327, 9.58140286062215, 0.0, 0.0], [-1.6095943787881395, -0.2355743574444311, 9.289702389860855, 74.36836712593676, 0.0, 0.0], [-0.02095558354189339, -0.022254050014940546, -0.023537616490209738, -0.0004140599382577142, 102.49884425931236, -7.573594460670421], [0.00017476663910638042, 0.00020113663494765972, 0.0001851433041369494, 2.7589995648989293e-05, -7.879686517384874, 92.04732517427045]], 'compliance_tensor': [[5.8, -2.1, -1.2, 0.0, -0.8, 0.0], [-2.1, 5.3, -1.2, 0.0, 0.4, 0.0], [-1.2, -1.2, 4.4, 0.0, 0.1, 0.0], [0.0, 0.0, 0.0, 10.9, 0.0, 0.8], [-0.8, 0.4, 0.1, 0.0, 13.6, 0.0], [0.0, 0.0, 0.0, 0.8, 0.0, 9.8]], 'warnings': [], 'nsites': 8}",0,83,152,0.16,0.27,210.82
110,mp-29658,ZrNiH3,"{'Zr': 1.0, 'Ni': 1.0, 'H': 3.0}",0.108895997,6.340586304,"{'G_Reuss': 62.0, 'G_VRH': 66.0, 'G_Voigt': 69.0, 'G_Voigt_Reuss_Hill': 66.0, 'K_Reuss': 149.0, 'K_VRH': 151.0, 'K_Voigt': 152.0, 'K_Voigt_Reuss_Hill': 151.0, 'elastic_anisotropy': 0.52, 'elastic_tensor': [[221.0, 69.0, 147.0, 0.0, 0.0, 0.0], [69.0, 259.0, 112.0, 0.0, 0.0, 0.0], [147.0, 112.0, 236.0, 0.0, 0.0, 0.0], [0.0, 0.0, 0.0, 73.0, 0.0, 0.0], [0.0, 0.0, 0.0, 0.0, 81.0, 0.0], [0.0, 0.0, 0.0, 0.0, 0.0, 60.0]], 'homogeneous_poisson': 0.31, 'poisson_ratio': 0.31, 'universal_anisotropy': 0.52, 'elastic_tensor_original': [[235.79423379761545, 114.54269320668251, 146.78445531983542, 0.0, 0.0, 0.0], [109.64678636594894, 259.0167281977081, 68.46075383448037, 0.0, 0.0, 0.0], [147.11124544443027, 68.87567658721998, 221.36437147715, 0.0, 0.0, 0.0], [0.00010609335390727449, 0.00011507666068518997, 0.00020548662776316462, 59.67135419587168, 0.0, 0.0], [0.0001254132759228842, 0.00013351327221466512, 0.00011924661207903668, 0.0, 81.05551883501616, 0.0], [-0.389945469321301, -0.4196059114470967, -0.4345973257824189, 0.0, 0.0, 73.31887392228978]], 'compliance_tensor': [[7.7, 0.0, -4.8, -0.0, 0.0, 0.0], [0.0, 4.9, -2.3, -0.0, 0.0, 0.0], [-4.8, -2.3, 8.4, 0.0, 0.0, 0.0], [-0.0, -0.0, 0.0, 13.6, 0.0, 0.0], [0.0, 0.0, 0.0, 0.0, 12.3, 0.0], [0.0, 0.0, 0.0, 0.0, 0.0, 16.8]], 'warnings': [], 'nsites': 10}",0,66,151,0.52,0.31,172.92
111,mp-30019,ZrCu2Te3,"{'Zr': 1.0, 'Cu': 2.0, 'Te': 3.0}",0.225210326,6.521758271,"{'G_Reuss': 20.0, 'G_VRH': 21.0, 'G_Voigt': 22.0, 'G_Voigt_Reuss_Hill': 21.0, 'K_Reuss': 38.0, 'K_VRH': 39.0, 'K_Voigt': 41.0, 'K_Voigt_Reuss_Hill': 39.0, 'elastic_anisotropy': 0.37, 'elastic_tensor': [[82.0, 26.0, 21.0, 0.0, 7.0, 0.0], [26.0, 84.0, 23.0, 0.0, 5.0, 0.0], [21.0, 23.0, 62.0, 0.0, 5.0, 0.0], [0.0, 0.0, 0.0, 19.0, 0.0, 2.0], [7.0, 5.0, 5.0, 0.0, 16.0, 0.0], [0.0, 0.0, 0.0, 2.0, 0.0, 20.0]], 'homogeneous_poisson': 0.27, 'poisson_ratio': 0.27, 'universal_anisotropy': 0.37, 'elastic_tensor_original': [[83.54725833470465, 24.32388561009897, 25.3909772210848, -5.604547952890101, 0.0, 0.0], [24.427614955421927, 76.30797344145027, 23.24708627542132, -10.619957687131404, 0.0, 0.0], [24.57543829635394, 21.440289999813878, 64.68170220464903, -4.181451622388264, 0.0, 0.0], [-4.4422645460899375, -10.440162754617694, -3.2425919227758113, 17.569423019569108, 0.0, 0.0], [-0.016903925322696217, 0.008355187535458776, 0.0036497280810581503, 0.022788639644455603, 19.88091729196366, -1.6036442127569486], [0.015183465894528582, 0.05367401463774516, 0.022864032287622345, 0.013648553950764713, -1.7616375608822197, 19.74085990586873]], 'compliance_tensor': [[14.5, -3.3, -3.3, 0.0, -4.1, 0.0], [-3.3, 14.3, -4.1, 0.0, -1.6, 0.0], [-3.3, -4.1, 19.1, 0.0, -3.2, 0.0], [0.0, 0.0, 0.0, 52.0, 0.0, -4.2], [-4.1, -1.6, -3.2, 0.0, 64.9, 0.0], [0.0, 0.0, 0.0, -4.2, 0.0, 49.7]], 'warnings': [], 'nsites': 12}",0,21,39,0.37,0.27,53.34
112,mp-30183,ZrAl5Ni2,"{'Zr': 1.0, 'Al': 5.0, 'Ni': 2.0}",0.10603612,4.838724775,"{'G_Reuss': 83.0, 'G_VRH': 84.0, 'G_Voigt': 84.0, 'G_Voigt_Reuss_Hill': 84.0, 'K_Reuss': 120.0, 'K_VRH': 120.0, 'K_Voigt': 120.0, 'K_Voigt_Reuss_Hill': 120.0, 'elastic_anisotropy': 0.09, 'elastic_tensor': [[231.0, 53.0, 77.0, 0.0, 0.0, 0.0], [53.0, 231.0, 77.0, 0.0, 0.0, 0.0], [77.0, 77.0, 210.0, 0.0, 0.0, 0.0], [0.0, 0.0, 0.0, 93.0, 0.0, 0.0], [0.0, 0.0, 0.0, 0.0, 93.0, 0.0], [0.0, 0.0, 0.0, 0.0, 0.0, 80.0]], 'homogeneous_poisson': 0.22, 'poisson_ratio': 0.22, 'universal_anisotropy': 0.09, 'elastic_tensor_original': [[230.5663225135727, 52.88033677049713, 76.38377850471069, 0.0, 0.0, 0.0], [52.87985608086663, 230.565568403737, 76.38355649891184, 0.0, 0.0, 0.0], [76.93297294175997, 76.93297294175997, 209.8650495704412, 0.0, 0.0, 0.0], [0.0006706463827401705, 0.0006635130700513255, 0.0005803095981581946, 93.23123600496086, 0.0, 0.0], [0.0008135362718334857, 0.0008002362530405854, 0.000711386131295022, 0.0, 93.23121426832385, 0.0], [-3.887974202140934e-05, -3.3579767359295896e-05, -3.0889796636129854e-05, 0.0, 0.0, 79.90186314685114]], 'compliance_tensor': [[5.0, -0.6, -1.6, -0.0, 0.0, 0.0], [-0.6, 5.0, -1.6, -0.0, 0.0, 0.0], [-1.6, -1.6, 5.9, 0.0, 0.0, 0.0], [-0.0, -0.0, 0.0, 10.7, 0.0, 0.0], [0.0, 0.0, 0.0, 0.0, 10.7, 0.0], [0.0, 0.0, 0.0, 0.0, 0.0, 12.5]], 'warnings': [], 'nsites': 8}",0,84,120,0.09,0.22,204.96
113,mp-3104,BaZrN2,"{'Ba': 1.0, 'Zr': 1.0, 'N': 2.0}",0.248182065,5.679937354,"{'G_Reuss': 35.0, 'G_VRH': 40.0, 'G_Voigt': 45.0, 'G_Voigt_Reuss_Hill': 40.0, 'K_Reuss': 98.0, 'K_VRH': 100.0, 'K_Voigt': 102.0, 'K_Voigt_Reuss_Hill': 100.0, 'elastic_anisotropy': 1.48, 'elastic_tensor': [[150.0, 111.0, 66.0, 0.0, 0.0, 0.0], [111.0, 150.0, 66.0, 0.0, 0.0, 0.0], [66.0, 66.0, 129.0, 0.0, 0.0, 0.0], [0.0, 0.0, 0.0, 35.0, 0.0, 0.0], [0.0, 0.0, 0.0, 0.0, 35.0, 0.0], [0.0, 0.0, 0.0, 0.0, 0.0, 93.0]], 'homogeneous_poisson': 0.32, 'poisson_ratio': 0.32, 'universal_anisotropy': 1.48, 'elastic_tensor_original': [[149.58043318303405, 110.63267761381157, 65.79568147453578, 0.0, 0.0, 0.0], [110.63177960172108, 149.57970900139009, 65.79674496576104, 0.0, 0.0, 0.0], [67.19804215692155, 67.19804215692155, 129.48789883448694, 0.0, 0.0, 0.0], [-2.416010015534904e-05, 3.370333233289698e-05, 1.1163465313445328e-05, 35.34348792284958, 0.0, 0.0], [-7.560363875816119e-05, -1.2570149059411739e-05, 1.2540143543638829e-05, 0.0, 35.343617732826026, 0.0], [4.479344364275976e-05, 3.866000462438511e-05, -6.2734089048123114e-06, 0.0, 0.0, 92.60363316727724]], 'compliance_tensor': [[15.4, -10.2, -2.7, -0.0, -0.0, 0.0], [-10.2, 15.4, -2.7, 0.0, 0.0, 0.0], [-2.7, -2.7, 10.5, 0.0, 0.0, 0.0], [-0.0, 0.0, 0.0, 28.3, 0.0, 0.0], [-0.0, 0.0, 0.0, 0.0, 28.3, 0.0], [0.0, 0.0, 0.0, 0.0, 0.0, 10.8]], 'warnings': [], 'nsites': 8}",0,40,100,1.48,0.32,105.6
114,mp-31457,ZrSbRu,"{'Zr': 1.0, 'Sb': 1.0, 'Ru': 1.0}",0.097733657,8.129977663,"{'G_Reuss': 46.0, 'G_VRH': 47.0, 'G_Voigt': 47.0, 'G_Voigt_Reuss_Hill': 47.0, 'K_Reuss': 136.0, 'K_VRH': 136.0, 'K_Voigt': 136.0, 'K_Voigt_Reuss_Hill': 136.0, 'elastic_anisotropy': 0.05, 'elastic_tensor': [[206.0, 100.0, 100.0, 0.0, 0.0, 0.0], [100.0, 206.0, 100.0, 0.0, 0.0, 0.0], [100.0, 100.0, 206.0, 0.0, 0.0, 0.0], [0.0, 0.0, 0.0, 43.0, 0.0, 0.0], [0.0, 0.0, 0.0, 0.0, 43.0, 0.0], [0.0, 0.0, 0.0, 0.0, 0.0, 43.0]], 'homogeneous_poisson': 0.35, 'poisson_ratio': 0.35, 'universal_anisotropy': 0.05, 'elastic_tensor_original': [[206.11075850768518, 100.3139537594212, 100.3139537594212, 0.0, 0.0, 0.0], [100.2969446096455, 206.09389574293894, 100.2969446096455, 0.0, 0.0, 0.0], [100.3083757945848, 100.3083757945848, 206.10554129412628, 0.0, 0.0, 0.0], [-1.2020014750193922e-05, 0.00019894024412137518, 3.6916711967492195e-05, 42.82078339573371, 0.0, 0.0], [0.00014486017775931526, 9.331344783718297e-05, 0.00015163351940406476, 0.0, 42.820701728966846, 0.0], [0.0001544868562387495, 0.00022963028178183933, 3.160003877574496e-05, 0.0, 0.0, 42.820843522474156]], 'compliance_tensor': [[7.1, -2.3, -2.3, 0.0, 0.0, 0.0], [-2.3, 7.1, -2.3, 0.0, 0.0, 0.0], [-2.3, -2.3, 7.1, -0.0, 0.0, 0.0], [0.0, 0.0, -0.0, 23.4, 0.0, 0.0], [0.0, 0.0, 0.0, 0.0, 23.4, 0.0], [0.0, 0.0, 0.0, 0.0, 0.0, 23.4]], 'warnings': [], 'nsites': 3}",0,47,136,0.05,0.35,126.9
115,mp-3208,ZrGeTe,"{'Zr': 1.0, 'Ge': 1.0, 'Te': 1.0}",0.200571977,7.117645012,"{'G_Reuss': 33.0, 'G_VRH': 44.0, 'G_Voigt': 56.0, 'G_Voigt_Reuss_Hill': 44.0, 'K_Reuss': 44.0, 'K_VRH': 58.0, 'K_Voigt': 72.0, 'K_Voigt_Reuss_Hill': 58.0, 'elastic_anisotropy': 4.08, 'elastic_tensor': [[165.0, 46.0, 46.0, 0.0, 0.0, 0.0], [46.0, 165.0, 46.0, 0.0, 0.0, 0.0], [46.0, 46.0, 44.0, 0.0, 0.0, 0.0], [0.0, 0.0, 0.0, 55.0, 0.0, 0.0], [0.0, 0.0, 0.0, 0.0, 55.0, 0.0], [0.0, 0.0, 0.0, 0.0, 0.0, 90.0]], 'homogeneous_poisson': 0.2, 'poisson_ratio': 0.2, 'universal_anisotropy': 4.08, 'elastic_tensor_original': [[165.18022459919484, 46.20320406796515, 44.932058371814996, 0.0, 0.0, 0.0], [46.20301651694762, 165.17979477189607, 44.93328286042288, 0.0, 0.0, 0.0], [47.40273621531451, 47.40273621531451, 43.805753789955624, 0.0, 0.0, 0.0], [-8.310011299193894e-06, 7.910677422774929e-05, 0.0002727170374809324, 54.79008957521853, 0.0, 0.0], [3.2680044435022263e-05, 0.0008172244445202911, 0.005884318000956548, 0.0, 54.78576420600396, 0.0], [-4.039671964072826e-05, -5.184673465810586e-05, -8.965678424263386e-05, 0.0, 0.0, 90.37695657079996]], 'compliance_tensor': [[8.6, 0.2, -9.2, 0.0, -0.0, 0.0], [0.2, 8.6, -9.2, 0.0, -0.0, 0.0], [-9.2, -9.2, 42.3, 0.0, 0.0, 0.0], [0.0, 0.0, 0.0, 18.3, 0.0, 0.0], [-0.0, -0.0, 0.0, 0.0, 18.3, 0.0], [0.0, 0.0, 0.0, 0.0, 0.0, 11.1]], 'warnings': [], 'nsites': 6}",0,44,58,4.08,0.2,105.6
116,mp-3469,ZrNi2Sb,"{'Zr': 1.0, 'Ni': 2.0, 'Sb': 1.0}",0.131035296,8.502891708,"{'G_Reuss': 60.0, 'G_VRH': 60.0, 'G_Voigt': 60.0, 'G_Voigt_Reuss_Hill': 60.0, 'K_Reuss': 143.0, 'K_VRH': 145.0, 'K_Voigt': 147.0, 'K_Voigt_Reuss_Hill': 145.0, 'elastic_anisotropy': 0.1, 'elastic_tensor': [[238.0, 132.0, 97.0, 0.0, 0.0, 0.0], [132.0, 238.0, 97.0, 0.0, 0.0, 0.0], [97.0, 97.0, 195.0, 0.0, 0.0, 0.0], [0.0, 0.0, 0.0, 67.0, 0.0, 0.0], [0.0, 0.0, 0.0, 0.0, 67.0, 0.0], [0.0, 0.0, 0.0, 0.0, 0.0, 53.0]], 'homogeneous_poisson': 0.32, 'poisson_ratio': 0.32, 'universal_anisotropy': 0.1, 'elastic_tensor_original': [[239.36137223559217, 131.9440690098404, 95.60986366108692, 0.0, 0.0, 0.0], [130.48263359829187, 238.5895106287987, 95.19442452644411, 0.0, 0.0, 0.0], [97.853696267858, 97.8537491881711, 195.04157843946385, 0.0, 0.0, 0.0], [-0.00010008671600770929, -0.0007622603757807925, -0.00022887011282882302, 66.8417773484762, 0.0, 0.0], [0.0001355968964772156, 0.00023623373370438078, -0.0004909374987118423, 0.0, 66.85778674449593, 0.0], [2.499364546993323e-05, 8.961047194640774e-05, 0.0002675235132700368, 0.0, 0.0, 52.55992969964076]], 'compliance_tensor': [[6.5, -2.9, -1.8, -0.0, 0.0, 0.0], [-2.9, 6.5, -1.8, -0.0, -0.0, 0.0], [-1.8, -1.8, 6.9, 0.0, -0.0, -0.0], [-0.0, 0.0, 0.0, 15.0, 0.0, 0.0], [0.0, -0.0, -0.0, 0.0, 15.0, 0.0], [0.0, 0.0, -0.0, -0.0, 0.0, 18.8]], 'warnings': [], 'nsites': 8}",0,60,145,0.1,0.32,158.4