,mp_id,Formula,Composition,IPF,Density,Elastic_Tensor,E_above_Hull,G_VRH,K_VRH,Elastic_Anisotropy,poisson_ratio,Y_Modulus
91,mp-977585,Zr3Tl,"{'Zr': 3.0, 'Tl': 1.0}",0.19763284,8.763011599,"{'G_Reuss': 57.0, 'G_VRH': 60.0, 'G_Voigt': 63.0, 'G_Voigt_Reuss_Hill': 60.0, 'K_Reuss': 121.0, 'K_VRH': 121.0, 'K_Voigt': 121.0, 'K_Voigt_Reuss_Hill': 121.0, 'elastic_anisotropy': 0.53, 'elastic_tensor': [[175.0, 94.0, 94.0, 0.0, 0.0, 0.0], [94.0, 175.0, 94.0, 0.0, 0.0, 0.0], [94.0, 94.0, 175.0, 0.0, 0.0, 0.0], [0.0, 0.0, 0.0, 78.0, 0.0, 0.0], [0.0, 0.0, 0.0, 0.0, 78.0, 0.0], [0.0, 0.0, 0.0, 0.0, 0.0, 78.0]], 'homogeneous_poisson': 0.29, 'poisson_ratio': 0.29, 'universal_anisotropy': 0.53, 'elastic_tensor_original': [[174.97938572169193, 93.68029751540814, 93.68029751540814, 0.0, 0.0, 0.0], [93.68029751540814, 174.97938572169193, 93.68029751540814, 0.0, 0.0, 0.0], [93.68029751540814, 93.68029751540814, 174.97938572169193, 0.0, 0.0, 0.0], [0.0, 0.0, 0.0, 78.19212532278256, 0.0, 0.0], [0.0, 0.0, 0.0, 0.0, 78.19212532278256, 0.0], [0.0, 0.0, 0.0, 0.0, 0.0, 78.19212532278256]], 'compliance_tensor': [[9.1, -3.2, -3.2, 0.0, 0.0, 0.0], [-3.2, 9.1, -3.2, 0.0, 0.0, 0.0], [-3.2, -3.2, 9.1, 0.0, 0.0, 0.0], [0.0, 0.0, 0.0, 12.8, 0.0, 0.0], [0.0, 0.0, 0.0, 0.0, 12.8, 0.0], [0.0, 0.0, 0.0, 0.0, 0.0, 12.8]], 'warnings': [], 'nsites': 4}",0,60,121,0.53,0.29,154.8
92,mp-979,ZrSb2,"{'Zr': 1.0, 'Sb': 2.0}",0.099553847,7.423378603,"{'G_Reuss': 49.0, 'G_VRH': 50.0, 'G_Voigt': 50.0, 'G_Voigt_Reuss_Hill': 50.0, 'K_Reuss': 81.0, 'K_VRH': 81.0, 'K_Voigt': 81.0, 'K_Voigt_Reuss_Hill': 81.0, 'elastic_anisotropy': 0.11, 'elastic_tensor': [[145.0, 49.0, 51.0, 0.0, 0.0, 0.0], [49.0, 147.0, 56.0, 0.0, 0.0, 0.0], [51.0, 56.0, 128.0, 0.0, 0.0, 0.0], [0.0, 0.0, 0.0, 56.0, 0.0, 0.0], [0.0, 0.0, 0.0, 0.0, 60.0, 0.0], [0.0, 0.0, 0.0, 0.0, 0.0, 49.0]], 'homogeneous_poisson': 0.24, 'poisson_ratio': 0.24, 'universal_anisotropy': 0.11, 'elastic_tensor_original': [[127.94968048091317, 50.646973477634376, 56.538843931240784, 0.0, 0.0, 0.0], [50.75326755804771, 144.99093778448278, 48.81699724023024, 0.0, 0.0, 0.0], [55.90184097639218, 48.21701177786387, 146.99728192334905, 0.0, 0.0, 0.0], [0.0017778151700566609, 0.0004746104948483814, 0.00043154715925028235, 48.59132835504815, 0.0, 0.0], [0.00043537325330375863, 0.0017068329860131226, 0.0012031830842486007, 0.0, 56.0706475565573, 0.0], [0.004259791903107808, 0.0005912928887274744, 0.0015121734824663597, 0.0, 0.0, 59.562154874069876]], 'compliance_tensor': [[8.4, -1.8, -2.5, 0.0, 0.0, -0.0], [-1.8, 8.6, -3.0, 0.0, 0.0, -0.0], [-2.5, -3.0, 10.2, 0.0, 0.0, 0.0], [0.0, 0.0, 0.0, 17.8, 0.0, 0.0], [0.0, 0.0, 0.0, 0.0, 16.8, 0.0], [-0.0, -0.0, 0.0, 0.0, 0.0, 20.6]], 'warnings': [], 'nsites': 24}",0,50,81,0.11,0.24,124
93,mp-9921,ZrS3,"{'Zr': 1.0, 'S': 3.0}",0.121847515,3.377376674,"{'G_Reuss': 3.0, 'G_VRH': 11.0, 'G_Voigt': 19.0, 'G_Voigt_Reuss_Hill': 11.0, 'K_Reuss': 11.0, 'K_VRH': 21.0, 'K_Voigt': 30.0, 'K_Voigt_Reuss_Hill': 21.0, 'elastic_anisotropy': 32.12, 'elastic_tensor': [[15.0, 4.0, 1.0, 0.0, -2.0, 0.0], [4.0, 130.0, 18.0, 0.0, -0.0, 0.0], [1.0, 18.0, 81.0, 0.0, 1.0, 0.0], [0.0, 0.0, 0.0, 26.0, 0.0, -0.0], [-2.0, -0.0, 1.0, 0.0, 1.0, 0.0], [0.0, 0.0, 0.0, -0.0, 0.0, 1.0]], 'homogeneous_poisson': 0.27, 'poisson_ratio': 0.27, 'universal_anisotropy': 32.12, 'elastic_tensor_original': [[129.76363229563188, 18.098393347912676, 3.889668929056161, 0.5147997947277535, 0.0, 0.0], [17.41874328433815, 80.64471126336203, -0.3923203734101215, 2.5183386465088993, 0.0, 0.0], [4.434674038241775, 1.8802128626080625, 15.436628070774091, -2.280980157126963, 0.0, 0.0], [-0.6113545374721339, -0.824686752180284, -1.0964952867557265, 1.234782298946991, 0.0, 0.0], [9.55935221387289e-05, -0.00032778701666461507, 0.00013527363993787718, 0.0001290900899934398, 1.4308606682603695, -0.0767223799010492], [4.017657921743894e-05, 6.553315376923955e-05, 2.2153259468407165e-05, -1.206997647821241e-05, -0.13953817476077396, 26.181610243315017]], 'compliance_tensor': [[77.2, -2.3, -1.4, 0.0, 106.7, 0.0], [-2.3, 8.0, -1.7, 0.0, -1.6, 0.0], [-1.4, -1.7, 12.9, 0.0, -11.2, 0.0], [0.0, 0.0, 0.0, 38.2, 0.0, 2.5], [106.7, -1.6, -11.2, 0.0, 962.2, 0.0], [0.0, 0.0, 0.0, 2.5, 0.0, 699.1]], 'warnings': ['c11 and c23 are within 5% or c23 is greater than c11'], 'nsites': 8}",0,11,21,32.12,0.27,27.94
94,mp-10200,ZrBeSi,"{'Zr': 1.0, 'Be': 1.0, 'Si': 1.0}",0.094995334,4.837725481,"{'G_Reuss': 115.0, 'G_VRH': 116.0, 'G_Voigt': 117.0, 'G_Voigt_Reuss_Hill': 116.0, 'K_Reuss': 137.0, 'K_VRH': 138.0, 'K_Voigt': 139.0, 'K_Voigt_Reuss_Hill': 138.0, 'elastic_anisotropy': 0.11, 'elastic_tensor': [[299.0, 68.0, 71.0, 0.0, 0.0, 0.0], [68.0, 299.0, 71.0, 0.0, 0.0, 0.0], [71.0, 71.0, 234.0, 0.0, 0.0, 0.0], [0.0, 0.0, 0.0, 132.0, 0.0, 0.0], [0.0, 0.0, 0.0, 0.0, 132.0, 0.0], [0.0, 0.0, 0.0, 0.0, 0.0, 116.0]], 'homogeneous_poisson': 0.17, 'poisson_ratio': 0.17, 'universal_anisotropy': 0.11, 'elastic_tensor_original': [[299.572657234476, 67.10180951674786, 70.37308567951611, 0.0, 0.0, 0.0], [66.58202579480182, 300.6666314590407, 71.33514809342073, 0.0, 0.0, 0.0], [70.95392765132772, 70.95387202659649, 233.66852192424338, 0.0, 0.0, 0.0], [-3.411330669463478e-05, -4.2819966561043854e-05, -5.242995905809341e-05, 131.65135426918076, 0.0, 0.0], [-6.263339959412704e-05, 1.9700020844311268e-06, -2.7280028860965216e-05, 0.0, 131.69298854362, 0.0], [-0.0011874645025060683, 0.0018155817876312596, -0.001263081243625962, 0.0, 0.0, 114.81761508108939]], 'compliance_tensor': [[3.7, -0.6, -0.9, 0.0, 0.0, -0.0], [-0.6, 3.7, -0.9, -0.0, -0.0, -0.0], [-0.9, -0.9, 4.8, 0.0, 0.0, 0.0], [0.0, -0.0, 0.0, 7.6, -0.0, 0.0], [0.0, -0.0, 0.0, -0.0, 7.6, -0.0], [-0.0, -0.0, 0.0, -0.0, -0.0, 8.6]], 'warnings': [], 'nsites': 6}",0,116,138,0.11,0.17,271.44
95,mp-1025456,CaZrF6,"{'Ca': 1.0, 'Zr': 1.0, 'F': 6.0}",0.110079996,2.536523792,"{'G_Reuss': 14.0, 'G_VRH': 23.0, 'G_Voigt': 33.0, 'G_Voigt_Reuss_Hill': 23.0, 'K_Reuss': 57.0, 'K_VRH': 57.0, 'K_Voigt': 57.0, 'K_Voigt_Reuss_Hill': 57.0, 'elastic_anisotropy': 6.89, 'elastic_tensor': [[148.0, 12.0, 12.0, 0.0, 0.0, 0.0], [12.0, 148.0, 12.0, 0.0, 0.0, 0.0], [12.0, 12.0, 148.0, 0.0, 0.0, 0.0], [0.0, 0.0, 0.0, 9.0, 0.0, 0.0], [0.0, 0.0, 0.0, 0.0, 9.0, 0.0], [0.0, 0.0, 0.0, 0.0, 0.0, 9.0]], 'homogeneous_poisson': 0.32, 'poisson_ratio': 0.32, 'universal_anisotropy': 6.89, 'elastic_tensor_original': [[147.68609589681537, 11.660891081935503, 11.660891081935503, 0.0, 0.0, 0.0], [11.650562566721526, 147.6259272944599, 11.650562566721526, 0.0, 0.0, 0.0], [11.650474737633806, 11.650474737633806, 147.6255975320618, 0.0, 0.0, 0.0], [0.007329080346464147, 0.00959098506258638, 0.007738336660210262, 8.934291038884039, 0.0, 0.0], [0.007665166723307793, 0.005815781651450971, 0.004470059478595665, 0.0, 8.933956819172252, 0.0], [0.009466971836195402, 0.007902993184886143, 0.007371820309607384, 0.0, 0.0, 8.934246342255916]], 'compliance_tensor': [[6.9, -0.5, -0.5, 0.0, -0.0, -0.0], [-0.5, 6.9, -0.5, -0.0, 0.0, -0.0], [-0.5, -0.5, 6.9, -0.0, -0.0, 0.0], [0.0, -0.0, -0.0, 111.9, 0.0, 0.0], [-0.0, 0.0, -0.0, 0.0, 111.9, 0.0], [-0.0, -0.0, 0.0, 0.0, 0.0, 111.9]], 'warnings': [], 'nsites': 8}",0,23,57,6.89,0.32,60.72
96,mp-1029267,CaZrN2,"{'Ca': 1.0, 'Zr': 1.0, 'N': 2.0}",0.202591796,4.887887678,"{'G_Reuss': 122.0, 'G_VRH': 123.0, 'G_Voigt': 124.0, 'G_Voigt_Reuss_Hill': 123.0, 'K_Reuss': 162.0, 'K_VRH': 162.0, 'K_Voigt': 163.0, 'K_Voigt_Reuss_Hill': 162.0, 'elastic_anisotropy': 0.07, 'elastic_tensor': [[351.0, 82.0, 68.0, 2.0, 0.0, 0.0], [82.0, 351.0, 68.0, -2.0, 0.0, 0.0], [68.0, 68.0, 324.0, 0.0, 0.0, 0.0], [2.0, -2.0, 0.0, 107.0, 0.0, 0.0], [0.0, 0.0, 0.0, 0.0, 107.0, 2.0], [0.0, 0.0, 0.0, 0.0, 2.0, 134.0]], 'homogeneous_poisson': 0.2, 'poisson_ratio': 0.2, 'universal_anisotropy': 0.07, 'elastic_tensor_original': [[351.657803983437, 82.3946140899482, 68.28333934207481, -1.9913112811325655, 0.0, 0.0], [82.35141870136037, 351.3552371696113, 68.1975755235997, 2.0327383000891577, 0.0, 0.0], [67.34206221883946, 67.34213005134974, 324.149289887507, 0.0, 0.0, 0.0], [-1.5500441303198123, 2.690631124305511, -0.33619931438648626, 107.39299183168811, 0.0, 0.0], [-0.017867657254107557, -0.010978394237203083, -0.02512746017645181, -0.01018664148493111, 107.4677699936266, -2.155283805675475], [-0.004600068334700006, 0.01778742812014813, -0.0108487172709892, 0.010860330595887244, -1.616362806463885, 134.40649723744275]], 'compliance_tensor': [[3.1, -0.6, -0.5, -0.1, -0.0, 0.0], [-0.6, 3.1, -0.5, 0.1, -0.0, 0.0], [-0.5, -0.5, 3.3, 0.0, -0.0, -0.0], [-0.1, 0.1, 0.0, 9.3, 0.0, -0.0], [-0.0, -0.0, -0.0, 0.0, 9.3, -0.1], [0.0, 0.0, -0.0, -0.0, -0.1, 7.4]], 'warnings': [], 'nsites': 4}",0,123,162,0.07,0.2,295.2
97,mp-1029580,Sr4ZrN4,"{'Sr': 4.0, 'Zr': 1.0, 'N': 4.0}",0.249612961,4.545152764,"{'G_Reuss': 25.0, 'G_VRH': 29.0, 'G_Voigt': 32.0, 'G_Voigt_Reuss_Hill': 29.0, 'K_Reuss': 69.0, 'K_VRH': 71.0, 'K_Voigt': 73.0, 'K_Voigt_Reuss_Hill': 71.0, 'elastic_anisotropy': 1.4, 'elastic_tensor': [[121.0, 42.0, 53.0, -9.0, -7.0, -8.0], [42.0, 131.0, 42.0, -2.0, -2.0, -10.0], [53.0, 42.0, 124.0, 3.0, 10.0, -5.0], [-9.0, -2.0, 3.0, 33.0, -0.0, -4.0], [-7.0, -2.0, 10.0, -0.0, 28.0, -8.0], [-8.0, -10.0, -5.0, -4.0, -8.0, 21.0]], 'homogeneous_poisson': 0.32, 'poisson_ratio': 0.32, 'universal_anisotropy': 1.4, 'elastic_tensor_original': [[124.2093496043346, 42.894735890346, 52.704714277295956, 5.527002487519793, 9.784108326971156, -2.276550322665146], [42.958020125420134, 132.58572783609333, 42.76788567303675, 7.3862807740808805, -0.9942807233132162, 1.3261874535502913], [53.19374270758782, 42.03002913502464, 119.16506350981055, 10.574982413053174, -7.730242588676221, 9.347993876071229], [4.6357398151639355, 7.600454452842863, 9.882248862413347, 21.20553418800222, 7.8839860972970985, -2.4826258206019927], [10.379191728867866, -1.2104255392482737, -8.083386554288822, 8.420553378179854, 27.978500655832924, -0.05052658472230794], [-2.1131023525107575, 1.2848691949131736, 9.496665334446131, -3.140987362968379, 0.07176180983544186, 32.92087019856849]], 'compliance_tensor': [[12.3, -1.7, -5.1, 4.6, 6.5, 6.4], [-1.7, 9.4, -2.5, 0.7, 2.4, 4.2], [-5.1, -2.5, 11.6, -3.0, -6.6, -3.9], [4.6, 0.7, -3.0, 33.0, 5.2, 9.2], [6.5, 2.4, -6.6, 5.2, 46.1, 21.2], [6.4, 4.2, -3.9, 9.2, 21.2, 60.9]], 'warnings': [], 'nsites': 18}",0,29,71,1.4,0.32,76.56
98,mp-10311,ZrVGe,"{'Zr': 1.0, 'V': 1.0, 'Ge': 1.0}",0.12744915,6.945396664,"{'G_Reuss': 57.0, 'G_VRH': 72.0, 'G_Voigt': 87.0, 'G_Voigt_Reuss_Hill': 72.0, 'K_Reuss': 146.0, 'K_VRH': 146.0, 'K_Voigt': 146.0, 'K_Voigt_Reuss_Hill': 146.0, 'elastic_anisotropy': 2.65, 'elastic_tensor': [[191.0, 149.0, 88.0, 0.0, 0.0, 0.0], [149.0, 191.0, 88.0, 0.0, 0.0, 0.0], [88.0, 88.0, 282.0, 0.0, 0.0, 0.0], [0.0, 0.0, 0.0, 89.0, 0.0, 0.0], [0.0, 0.0, 0.0, 0.0, 89.0, 0.0], [0.0, 0.0, 0.0, 0.0, 0.0, 143.0]], 'homogeneous_poisson': 0.29, 'poisson_ratio': 0.29, 'universal_anisotropy': 2.65, 'elastic_tensor_original': [[191.22053184733215, 149.32292524884778, 87.00986037468535, 0.0, 0.0, 0.0], [149.30344898348318, 191.20288126307213, 87.00304517570872, 0.0, 0.0, 0.0], [88.38205533815935, 88.38205533815935, 281.6845289310177, 0.0, 0.0, 0.0], [0.00013844694752183462, 0.00027433055651004, 7.184014573591996e-05, 88.56533775146634, 0.0, 0.0], [-0.00047335096024637773, -8.941684805890606e-05, -0.0005590611341186573, 0.0, 88.56599827947295, 0.0], [-0.023139181265378516, 0.002905739352476353, -0.014508860054621616, 0.0, 0.0, 143.38898812219423]], 'compliance_tensor': [[13.7, -10.2, -1.1, -0.0, 0.0, 0.0], [-10.2, 13.7, -1.1, 0.0, -0.0, 0.0], [-1.1, -1.1, 4.2, 0.0, -0.0, -0.0], [-0.0, 0.0, 0.0, 11.3, -0.0, 0.0], [0.0, -0.0, -0.0, -0.0, 11.3, -0.0], [0.0, 0.0, -0.0, 0.0, -0.0, 7.0]], 'warnings': [], 'nsites': 6}",0,72,146,2.65,0.29,185.76
99,mp-10706,ZrRu3C,"{'Zr': 1.0, 'Ru': 3.0, 'C': 1.0}",0.092784477,9.774537371,"{'G_Reuss': 156.0, 'G_VRH': 157.0, 'G_Voigt': 159.0, 'G_Voigt_Reuss_Hill': 157.0, 'K_Reuss': 257.0, 'K_VRH': 257.0, 'K_Voigt': 257.0, 'K_Voigt_Reuss_Hill': 257.0, 'elastic_anisotropy': 0.1, 'elastic_tensor': [[505.0, 133.0, 133.0, 0.0, 0.0, 0.0], [133.0, 505.0, 133.0, 0.0, 0.0, 0.0], [133.0, 133.0, 505.0, 0.0, 0.0, 0.0], [0.0, 0.0, 0.0, 140.0, 0.0, 0.0], [0.0, 0.0, 0.0, 0.0, 140.0, 0.0], [0.0, 0.0, 0.0, 0.0, 0.0, 140.0]], 'homogeneous_poisson': 0.25, 'poisson_ratio': 0.25, 'universal_anisotropy': 0.1, 'elastic_tensor_original': [[504.6072078766252, 133.00202935781786, 133.00202935781786, 0.0, 0.0, 0.0], [132.99901960931695, 504.6049458203189, 132.99901960931695, 0.0, 0.0, 0.0], [133.00095662289124, 133.00095662289124, 504.60719973840463, 0.0, 0.0, 0.0], [0.00030708973109685545, 0.00045602626735018463, 0.00035440635633233206, 140.3409322741398, 0.0, 0.0], [-0.0003547463560312929, -4.094663081209837e-05, -0.0003959796532597858, 0.0, 140.34067446769888, 0.0], [0.00011281990120989692, 0.0001710798501959411, 0.00013154655147834356, 0.0, 0.0, 140.34077930760702]], 'compliance_tensor': [[2.2, -0.5, -0.5, 0.0, -0.0, 0.0], [-0.5, 2.2, -0.5, 0.0, -0.0, -0.0], [-0.5, -0.5, 2.2, -0.0, 0.0, -0.0], [0.0, 0.0, -0.0, 7.1, -0.0, -0.0], [-0.0, -0.0, 0.0, -0.0, 7.1, -0.0], [0.0, -0.0, -0.0, -0.0, -0.0, 7.1]], 'warnings': [], 'nsites': 5}",0,157,257,0.1,0.25,392.5
100,mp-11366,ZrZnCu2,"{'Zr': 1.0, 'Zn': 1.0, 'Cu': 2.0}",0.16840644,7.826255815,"{'G_Reuss': 39.0, 'G_VRH': 43.0, 'G_Voigt': 47.0, 'G_Voigt_Reuss_Hill': 43.0, 'K_Reuss': 122.0, 'K_VRH': 122.0, 'K_Voigt': 122.0, 'K_Voigt_Reuss_Hill': 122.0, 'elastic_anisotropy': 1.02, 'elastic_tensor': [[156.0, 105.0, 105.0, 0.0, 0.0, 0.0], [105.0, 156.0, 105.0, 0.0, 0.0, 0.0], [105.0, 105.0, 156.0, 0.0, 0.0, 0.0], [0.0, 0.0, 0.0, 61.0, 0.0, 0.0], [0.0, 0.0, 0.0, 0.0, 61.0, 0.0], [0.0, 0.0, 0.0, 0.0, 0.0, 61.0]], 'homogeneous_poisson': 0.34, 'poisson_ratio': 0.34, 'universal_anisotropy': 1.02, 'elastic_tensor_original': [[155.50223298939474, 105.43686357026561, 105.43682975216885, 0.0, 0.0, 4.1836664547624534e-05], [105.47520567937748, 155.54026880217648, 105.47513802315868, 0.0, 0.0, 4.187664580781732e-05], [105.43303416509667, 105.43300036686695, 155.49766493277946, 0.0, 0.0, 3.383812913244918e-05], [0.0014143574856174783, 0.0015052252534671076, 0.0015516952412878242, 61.1522148753979, 9.806667850077355e-06, 0.0], [0.0012587197961490073, 0.0016621763373540635, 0.0012770284244303341, 9.806664913650336e-06, 61.15248925202421, 0.0], [-0.10392601506453833, -0.10779270861441714, -0.09425445622786174, 0.0, 0.0, 61.13538145077799]], 'compliance_tensor': [[14.2, -5.7, -5.7, -0.0, 0.0, 0.0], [-5.7, 14.2, -5.7, 0.0, -0.0, 0.0], [-5.7, -5.7, 14.2, 0.0, 0.0, -0.0], [-0.0, 0.0, 0.0, 16.4, 0.0, 0.0], [0.0, -0.0, 0.0, 0.0, 16.4, 0.0], [0.0, 0.0, -0.0, 0.0, 0.0, 16.4]], 'warnings': [], 'nsites': 4}",0,43,122,1.02,0.34,115.24
101,mp-12760,Zr6Al2Co,"{'Zr': 6.0, 'Al': 2.0, 'Co': 1.0}",0.111969945,5.999277823,"{'G_Reuss': 51.0, 'G_VRH': 51.0, 'G_Voigt': 51.0, 'G_Voigt_Reuss_Hill': 51.0, 'K_Reuss': 106.0, 'K_VRH': 106.0, 'K_Voigt': 107.0, 'K_Voigt_Reuss_Hill': 106.0, 'elastic_anisotropy': 0.01, 'elastic_tensor': [[179.0, 76.0, 69.0, 0.0, 0.0, 0.0], [76.0, 179.0, 69.0, 0.0, 0.0, 0.0], [69.0, 69.0, 174.0, 0.0, 0.0, 0.0], [0.0, 0.0, 0.0, 49.0, 0.0, 0.0], [0.0, 0.0, 0.0, 0.0, 49.0, 0.0], [0.0, 0.0, 0.0, 0.0, 0.0, 51.0]], 'homogeneous_poisson': 0.29, 'poisson_ratio': 0.29, 'universal_anisotropy': 0.01, 'elastic_tensor_original': [[178.14408885891868, 77.2591654829955, 69.5487944812833, 0.0, 0.0, 0.0], [75.7204026930895, 177.22934680667308, 68.17764588831143, 0.0, 0.0, 0.0], [69.44547408909906, 69.44544301003782, 173.66264432634625, 0.0, 0.0, 0.0], [-0.01795161285098399, -0.017514866682634255, -0.016651337667899523, 48.94838211776573, 0.0, 0.0], [6.320091525526447e-05, 3.8258270537770644e-05, 0.00014512149139353438, 0.0, 48.8622421394428, 0.0], [0.0004215437082263633, 0.0004069236943566381, 0.00039909368731917347, 0.0, 0.0, 52.270210045852075]], 'compliance_tensor': [[7.4, -2.3, -2.0, 0.0, -0.0, -0.0], [-2.3, 7.4, -2.0, -0.0, -0.0, -0.0], [-2.0, -2.0, 7.4, -0.0, 0.0, 0.0], [0.0, -0.0, -0.0, 20.4, -0.0, -0.0], [-0.0, -0.0, 0.0, -0.0, 20.4, 0.0], [-0.0, -0.0, 0.0, -0.0, 0.0, 19.4]], 'warnings': [], 'nsites': 9}",0,51,106,0.01,0.29,131.58
102,mp-12951,ZrGaAu,"{'Zr': 1.0, 'Ga': 1.0, 'Au': 1.0}",0.169581859,10.46106834,"{'G_Reuss': 61.0, 'G_VRH': 62.0, 'G_Voigt': 63.0, 'G_Voigt_Reuss_Hill': 62.0, 'K_Reuss': 122.0, 'K_VRH': 125.0, 'K_Voigt': 127.0, 'K_Voigt_Reuss_Hill': 125.0, 'elastic_anisotropy': 0.16, 'elastic_tensor': [[223.0, 113.0, 77.0, 0.0, 0.0, 0.0], [113.0, 223.0, 77.0, 0.0, 0.0, 0.0], [77.0, 77.0, 165.0, 0.0, 0.0, 0.0], [0.0, 0.0, 0.0, 72.0, 0.0, 0.0], [0.0, 0.0, 0.0, 0.0, 72.0, 0.0], [0.0, 0.0, 0.0, 0.0, 0.0, 55.0]], 'homogeneous_poisson': 0.29, 'poisson_ratio': 0.29, 'universal_anisotropy': 0.16, 'elastic_tensor_original': [[223.26177493913065, 112.32466712117625, 77.1982286769968, 0.0, 0.0, 0.0], [112.6447837299718, 223.4053788700111, 76.92028510221243, 0.0, 0.0, 0.0], [77.04281828822627, 77.04279582784417, 165.30299588396124, 0.0, 0.0, 0.0], [0.0009518484095487279, 0.00044043080645120053, 0.0008799782779504179, 71.7387556605413, 0.0, 0.0], [-0.00010366983652625438, -9.712318018265947e-05, -5.910990679115516e-05, 0.0, 71.67457462825857, 0.0], [2.4443392114836185e-05, 1.923666013771868e-05, 1.76833579072715e-05, 0.0, 0.0, 54.37083801635938]], 'compliance_tensor': [[6.4, -2.7, -1.8, -0.0, -0.0, 0.0], [-2.7, 6.4, -1.8, -0.0, -0.0, 0.0], [-1.8, -1.8, 7.7, 0.0, 0.0, -0.0], [-0.0, -0.0, 0.0, 13.9, 0.0, 0.0], [-0.0, -0.0, 0.0, 0.0, 13.9, 0.0], [0.0, 0.0, -0.0, 0.0, 0.0, 18.2]], 'warnings': [], 'nsites': 6}",0,62,125,0.16,0.29,159.96
103,mp-13946,Rb2ZrF6,"{'Rb': 2.0, 'Zr': 1.0, 'F': 6.0}",0.296969035,3.725273347,"{'G_Reuss': 10.0, 'G_VRH': 10.0, 'G_Voigt': 10.0, 'G_Voigt_Reuss_Hill': 10.0, 'K_Reuss': 22.0, 'K_VRH': 22.0, 'K_Voigt': 22.0, 'K_Voigt_Reuss_Hill': 22.0, 'elastic_anisotropy': 0.31, 'elastic_tensor': [[40.0, 16.0, 14.0, -2.0, 0.0, 0.0], [16.0, 40.0, 14.0, 2.0, 0.0, 0.0], [14.0, 14.0, 30.0, 0.0, 0.0, 0.0], [-2.0, 2.0, 0.0, 9.0, 0.0, 0.0], [0.0, 0.0, 0.0, 0.0, 9.0, -2.0], [0.0, 0.0, 0.0, 0.0, -2.0, 12.0]], 'homogeneous_poisson': 0.3, 'poisson_ratio': 0.3, 'universal_anisotropy': 0.31, 'elastic_tensor_original': [[39.70904459059746, 15.859492457747763, 14.348430167340082, 1.9078978605307317, 0.0, 0.0], [16.233067355183017, 40.779490866265164, 14.758564959120864, -2.2565018370680403, 0.0, 0.0], [13.870478903121102, 13.870472782841775, 30.356456669455657, 0.0, 0.0, 0.0], [1.9355079294789321, -1.687418638134629, -0.12264695878492518, 8.576548682728882, 0.0, 0.0], [-0.0037725876327421638, -0.0031344441712780097, -0.010852658120417906, 0.009553482203067763, 8.589748165193665, 1.7102743177415491], [-0.1638675233567928, -0.18817838877053947, -0.17449010814244875, -0.005410724408134803, 1.799307773772691, 12.070847295917776]], 'compliance_tensor': [[33.0, -9.8, -10.9, 9.2, -0.0, -0.0], [-9.8, 33.0, -10.9, -9.2, -0.0, -0.0], [-10.9, -10.9, 43.1, -0.0, 0.0, 0.0], [9.2, -9.2, -0.0, 120.5, -0.0, -0.0], [-0.0, -0.0, 0.0, -0.0, 120.5, 18.5], [-0.0, -0.0, 0.0, -0.0, 18.5, 85.6]], 'warnings': [], 'nsites': 9}",0,10,22,0.31,0.3,26