,mp_id,Formula,Composition,IPF,Density,Elastic_Tensor,E_above_Hull,G_VRH,K_VRH,Elastic_Anisotropy,poisson_ratio,Y_Modulus
65,mp-395,ZrAl3,"{'Zr': 1.0, 'Al': 3.0}",0.093315598,4.08608236,"{'G_Reuss': 82.0, 'G_VRH': 83.0, 'G_Voigt': 83.0, 'G_Voigt_Reuss_Hill': 83.0, 'K_Reuss': 103.0, 'K_VRH': 103.0, 'K_Voigt': 103.0, 'K_Voigt_Reuss_Hill': 103.0, 'elastic_anisotropy': 0.06, 'elastic_tensor': [[209.0, 64.0, 45.0, 0.0, 0.0, 0.0], [64.0, 209.0, 45.0, 0.0, 0.0, 0.0], [45.0, 45.0, 201.0, 0.0, 0.0, 0.0], [0.0, 0.0, 0.0, 81.0, 0.0, 0.0], [0.0, 0.0, 0.0, 0.0, 81.0, 0.0], [0.0, 0.0, 0.0, 0.0, 0.0, 99.0]], 'homogeneous_poisson': 0.18, 'poisson_ratio': 0.18, 'universal_anisotropy': 0.06, 'elastic_tensor_original': [[208.74515042974411, 63.95653218595534, 45.62046004021607, 0.0, 0.0, 0.0], [63.95647751946337, 208.7451014316036, 45.62025755566813, 0.0, 0.0, 0.0], [44.667163225713395, 44.667163225713395, 201.0096858623109, 0.0, 0.0, 0.0], [1.4466686247242387e-06, 2.7566703991701343e-06, -7.626676990046896e-06, 80.77932493934739, 0.0, 0.0], [-5.813341201090585e-06, -4.660006307956803e-06, 4.430005997367627e-06, 0.0, 80.77932337267859, 0.0], [-1.1026681445648588e-05, -8.750011727196489e-06, -2.5000033503349984e-06, 0.0, 0.0, 99.24927285597161]], 'compliance_tensor': [[5.4, -1.5, -0.9, -0.0, 0.0, -0.0], [-1.5, 5.4, -0.9, 0.0, 0.0, 0.0], [-0.9, -0.9, 5.4, -0.0, -0.0, 0.0], [-0.0, 0.0, -0.0, 12.4, 0.0, 0.0], [0.0, 0.0, -0.0, 0.0, 12.4, -0.0], [-0.0, 0.0, 0.0, 0.0, -0.0, 10.1]], 'warnings': [], 'nsites': 8}",0,83,103,0.06,0.18,195.88
66,mp-485,ZrNi3,"{'Zr': 1.0, 'Ni': 3.0}",0.147252441,8.426584388,"{'G_Reuss': 69.0, 'G_VRH': 70.0, 'G_Voigt': 71.0, 'G_Voigt_Reuss_Hill': 70.0, 'K_Reuss': 170.0, 'K_VRH': 170.0, 'K_Voigt': 171.0, 'K_Voigt_Reuss_Hill': 170.0, 'elastic_anisotropy': 0.13, 'elastic_tensor': [[268.0, 121.0, 114.0, 0.0, 0.0, 0.0], [121.0, 268.0, 114.0, 0.0, 0.0, 0.0], [114.0, 114.0, 302.0, 0.0, 0.0, 0.0], [0.0, 0.0, 0.0, 59.0, 0.0, 0.0], [0.0, 0.0, 0.0, 0.0, 59.0, 0.0], [0.0, 0.0, 0.0, 0.0, 0.0, 74.0]], 'homogeneous_poisson': 0.32, 'poisson_ratio': 0.32, 'universal_anisotropy': 0.13, 'elastic_tensor_original': [[268.3465169773063, 120.39312941910383, 114.62942250366304, 0.0, 0.0, 0.0], [120.41368811865108, 268.8050403718002, 113.95123678842053, 0.0, 0.0, 0.0], [113.41074271204678, 113.41069937519741, 302.313594717799, 0.0, 0.0, 0.0], [-0.0004357001642403038, 0.0004673537511209086, -0.00011796876213483446, 58.843865377265644, 0.0, 0.0], [0.0007427570377940028, 0.0013431439021143524, -0.00030604393936879107, 0.0, 58.662262716413586, 0.0], [0.00033242005513681123, -0.00011177776869971098, 0.0001334816710018535, 0.0, 0.0, 73.74672037500255]], 'compliance_tensor': [[5.0, -1.7, -1.2, 0.0, -0.0, -0.0], [-1.7, 5.0, -1.2, -0.0, -0.0, -0.0], [-1.2, -1.2, 4.2, -0.0, 0.0, 0.0], [0.0, -0.0, -0.0, 17.0, -0.0, -0.0], [-0.0, -0.0, 0.0, -0.0, 17.0, -0.0], [-0.0, -0.0, 0.0, -0.0, -0.0, 13.5]], 'warnings': [], 'nsites': 8}",0,70,170,0.13,0.32,184.8
67,mp-504594,ZrBr,"{'Zr': 1.0, 'Br': 1.0}",0.105831473,5.425263688,"{'G_Reuss': 0.0, 'G_VRH': 6.0, 'G_Voigt': 11.0, 'G_Voigt_Reuss_Hill': 6.0, 'K_Reuss': 6.0, 'K_VRH': 19.0, 'K_Voigt': 32.0, 'K_Voigt_Reuss_Hill': 19.0, 'elastic_anisotropy': 3813.07, 'elastic_tensor': [[83.0, 48.0, 5.0, -3.0, 0.0, 0.0], [48.0, 83.0, 5.0, 3.0, 0.0, 0.0], [5.0, 5.0, 6.0, 0.0, 0.0, 0.0], [-3.0, 3.0, 0.0, 0.0, 0.0, 0.0], [0.0, 0.0, 0.0, 0.0, 0.0, -3.0], [0.0, 0.0, 0.0, 0.0, -3.0, 18.0]], 'homogeneous_poisson': 0.36, 'poisson_ratio': 0.36, 'universal_anisotropy': 3813.07, 'elastic_tensor_original': [[81.53571402058432, 51.120233627322385, 6.319645029140535, 10.007459955474372, 0.0, 0.0], [51.12884023154883, 78.49569537040999, 11.72066637855012, -9.461713987333606, 0.0, 0.0], [0.5500163786751915, 0.5500170368220422, 5.708403915202808, 0.0, 0.0, 0.0], [0.30287235651191324, -0.09007972028665778, 0.29534024366681255, 0.6000220199311374, 0.0, 0.0], [0.0105774298658688, 0.01588952639148924, 0.09260095033975739, -0.014736930038356572, 0.13094244902552937, -0.15936090910824216], [0.012400039077340736, -0.014874421872230687, 0.03991004663390861, -0.025977952520143142, 0.30410117139247367, 20.8622526564761]], 'compliance_tensor': [[857.3, -849.2, -6.8, 11761.9, 0.0, 0.0], [-849.2, 857.3, -6.8, -11761.9, 0.0, 0.0], [-6.8, -6.8, 186.6, 0.0, -0.0, -0.0], [11761.9, -11761.9, 0.0, 164865.6, 0.0, 0.0], [0.0, 0.0, -0.0, 0.0, 164865.6, 23523.9], [0.0, 0.0, -0.0, 0.0, 23523.9, 3413.1]], 'warnings': ['One or more K, G below 2 GPa'], 'nsites': 4}",0,6,19,3813.07,0.36,16.32
68,mp-543001,Zr5Sn4,"{'Zr': 5.0, 'Sn': 4.0}",0.112706558,7.607774276,"{'G_Reuss': 62.0, 'G_VRH': 62.0, 'G_Voigt': 62.0, 'G_Voigt_Reuss_Hill': 62.0, 'K_Reuss': 104.0, 'K_VRH': 104.0, 'K_Voigt': 104.0, 'K_Voigt_Reuss_Hill': 104.0, 'elastic_anisotropy': 0.03, 'elastic_tensor': [[192.0, 67.0, 55.0, 0.0, 0.0, 0.0], [67.0, 192.0, 55.0, 0.0, 0.0, 0.0], [55.0, 55.0, 194.0, 0.0, 0.0, 0.0], [0.0, 0.0, 0.0, 58.0, 0.0, 0.0], [0.0, 0.0, 0.0, 0.0, 58.0, 0.0], [0.0, 0.0, 0.0, 0.0, 0.0, 62.0]], 'homogeneous_poisson': 0.25, 'poisson_ratio': 0.25, 'universal_anisotropy': 0.03, 'elastic_tensor_original': [[193.8001095283869, 68.60376467837561, 51.661991475016485, 0.0, 0.0, 0.0], [64.91851497471559, 189.92598423790673, 56.70927617466686, 0.0, 0.0, 0.0], [56.441293034705225, 56.44128813552118, 193.715760314841, 0.0, 0.0, 0.0], [0.0004063300584605268, 0.00022047003172127096, -0.00060302342009259, 58.24469022657207, 0.0, 0.0], [7.720000361890406e-06, -3.330674154083327e-05, -8.11668707063226e-06, 0.0, 58.180899578237394, 0.0], [-0.00033662661229549314, -0.005012142527721692, -0.0015976497434363388, 0.0, 0.0, 62.16870677845772]], 'compliance_tensor': [[6.2, -1.8, -1.3, 0.0, 0.0, -0.0], [-1.8, 6.2, -1.3, 0.0, 0.0, -0.0], [-1.3, -1.3, 5.9, -0.0, -0.0, 0.0], [0.0, 0.0, -0.0, 17.2, -0.0, -0.0], [0.0, 0.0, -0.0, -0.0, 17.2, 0.0], [-0.0, -0.0, 0.0, -0.0, -0.0, 16.0]], 'warnings': [], 'nsites': 18}",0,62,104,0.03,0.25,155
69,mp-556,ZrNi,"{'Zr': 1.0, 'Ni': 1.0}",0.129591324,7.39640909,"{'G_Reuss': 25.0, 'G_VRH': 35.0, 'G_Voigt': 45.0, 'G_Voigt_Reuss_Hill': 35.0, 'K_Reuss': 138.0, 'K_VRH': 138.0, 'K_Voigt': 139.0, 'K_Voigt_Reuss_Hill': 138.0, 'elastic_anisotropy': 3.93, 'elastic_tensor': [[194.0, 117.0, 124.0, 0.0, 0.0, 0.0], [117.0, 196.0, 102.0, 0.0, 0.0, 0.0], [124.0, 102.0, 175.0, 0.0, 0.0, 0.0], [0.0, 0.0, 0.0, 9.0, 0.0, 0.0], [0.0, 0.0, 0.0, 0.0, 65.0, 0.0], [0.0, 0.0, 0.0, 0.0, 0.0, 77.0]], 'homogeneous_poisson': 0.38, 'poisson_ratio': 0.38, 'universal_anisotropy': 3.93, 'elastic_tensor_original': [[175.24621655814215, 101.57365466505551, 124.22975636426735, 0.0, 0.0, 0.0], [102.57193294943677, 195.70146216979873, 116.97035285177398, 0.0, 0.0, 0.0], [124.08080569270291, 116.78077318083945, 194.07238731491728, 0.0, 0.0, 0.0], [0.0005360030877041422, 0.00023100656080510165, 0.0006000897250012905, 76.75660277203546, 0.0, 0.0], [-0.003501016105187541, -0.0036670863947877684, -0.0034613460360106056, 0.0, 64.80183127693017, 0.0], [-0.0008451181268356695, -0.0008156014091712734, -0.0009884183744247915, 0.0, 0.0, 8.755575064277625]], 'compliance_tensor': [[10.9, -3.6, -5.7, 0.0, 0.0, 0.0], [-3.6, 8.5, -2.4, -0.0, 0.0, 0.0], [-5.7, -2.4, 11.1, -0.0, 0.0, 0.0], [0.0, -0.0, -0.0, 114.2, 0.0, 0.0], [0.0, 0.0, 0.0, 0.0, 15.4, 0.0], [0.0, 0.0, 0.0, 0.0, 0.0, 13.0]], 'warnings': [], 'nsites': 4}",0,35,138,3.93,0.38,96.6
70,mp-568992,ZrIr,"{'Zr': 1.0, 'Ir': 1.0}",0.121488842,12.59589936,"{'G_Reuss': 62.0, 'G_VRH': 65.0, 'G_Voigt': 68.0, 'G_Voigt_Reuss_Hill': 65.0, 'K_Reuss': 186.0, 'K_VRH': 187.0, 'K_Voigt': 187.0, 'K_Voigt_Reuss_Hill': 187.0, 'elastic_anisotropy': 0.47, 'elastic_tensor': [[271.0, 145.0, 174.0, 0.0, 0.0, 0.0], [145.0, 268.0, 132.0, 0.0, 0.0, 0.0], [174.0, 132.0, 245.0, 0.0, 0.0, 0.0], [0.0, 0.0, 0.0, 51.0, 0.0, 0.0], [0.0, 0.0, 0.0, 0.0, 89.0, 0.0], [0.0, 0.0, 0.0, 0.0, 0.0, 87.0]], 'homogeneous_poisson': 0.34, 'poisson_ratio': 0.34, 'universal_anisotropy': 0.47, 'elastic_tensor_original': [[244.6241430911599, 131.78148322320595, 173.8902896316216, 0.0, 0.0, 0.0], [131.67016409137437, 268.1227579089099, 145.18021704691063, 0.0, 0.0, 0.0], [173.95369547793737, 145.37730089647945, 270.56447437632886, 0.0, 0.0, 0.0], [0.00015421682336465086, -0.00044339357088497285, -0.0001787768143444494, 87.30151584885331, 0.0, 0.0], [-0.006143330200616741, -0.006390017276893734, -0.005053251723942093, 0.0, 88.89032719353763, 0.0], [-0.0001858803240703434, -0.0007671580041610363, 0.0008508281500351174, 0.0, 0.0, 51.34292788666002]], 'compliance_tensor': [[7.5, -2.0, -4.3, -0.0, 0.0, 0.0], [-2.0, 5.6, -1.6, 0.0, 0.0, 0.0], [-4.3, -1.6, 8.0, 0.0, 0.0, 0.0], [-0.0, 0.0, 0.0, 19.5, 0.0, 0.0], [0.0, 0.0, 0.0, 0.0, 11.2, 0.0], [0.0, 0.0, 0.0, 0.0, 0.0, 11.5]], 'warnings': [], 'nsites': 8}",0,65,187,0.47,0.34,174.2
71,mp-569671,ZrSb,"{'Zr': 1.0, 'Sb': 1.0}",0.109741598,7.671287401,"{'G_Reuss': 57.0, 'G_VRH': 58.0, 'G_Voigt': 59.0, 'G_Voigt_Reuss_Hill': 58.0, 'K_Reuss': 104.0, 'K_VRH': 104.0, 'K_Voigt': 104.0, 'K_Voigt_Reuss_Hill': 104.0, 'elastic_anisotropy': 0.23, 'elastic_tensor': [[204.0, 53.0, 53.0, 0.0, 0.0, 0.0], [53.0, 204.0, 53.0, 0.0, 0.0, 0.0], [53.0, 53.0, 204.0, 0.0, 0.0, 0.0], [0.0, 0.0, 0.0, 49.0, 0.0, 0.0], [0.0, 0.0, 0.0, 0.0, 49.0, 0.0], [0.0, 0.0, 0.0, 0.0, 0.0, 49.0]], 'homogeneous_poisson': 0.26, 'poisson_ratio': 0.26, 'universal_anisotropy': 0.23, 'elastic_tensor_original': [[204.37341426250143, 53.496311652080806, 53.249313957224466, 0.0, 0.0, 0.0], [53.248172882505315, 204.37385443342447, 53.49708457672928, 0.0, 0.0, 0.0], [53.49482057719786, 53.24971345590412, 204.3717654590806, 0.0, 0.0, 0.0], [0.0002488132193422046, -4.2059980730316977e-05, 0.00020213324072823431, 48.941669884496186, 0.0, 0.0], [-0.0003093731915962278, -0.000208259904587529, -0.00010283661955288915, 0.0, 48.420835413111654, 0.0], [-4.9026644205393194e-05, 5.081664338603764e-05, -5.766664024461292e-06, 0.0, 0.0, 48.941776494447346]], 'compliance_tensor': [[5.5, -1.1, -1.1, 0.0, 0.0, 0.0], [-1.1, 5.5, -1.1, 0.0, 0.0, 0.0], [-1.1, -1.1, 5.5, 0.0, 0.0, 0.0], [0.0, 0.0, 0.0, 20.5, 0.0, 0.0], [0.0, 0.0, 0.0, 0.0, 20.5, 0.0], [0.0, 0.0, 0.0, 0.0, 0.0, 20.5]], 'warnings': [], 'nsites': 8}",0,58,104,0.23,0.26,146.16
72,mp-569833,Zr2Ga,"{'Zr': 2.0, 'Ga': 1.0}",0.116193284,6.78835122,"{'G_Reuss': 44.0, 'G_VRH': 47.0, 'G_Voigt': 51.0, 'G_Voigt_Reuss_Hill': 47.0, 'K_Reuss': 107.0, 'K_VRH': 107.0, 'K_Voigt': 107.0, 'K_Voigt_Reuss_Hill': 107.0, 'elastic_anisotropy': 0.79, 'elastic_tensor': [[154.0, 88.0, 88.0, 0.0, 0.0, 0.0], [88.0, 145.0, 84.0, 0.0, 0.0, 0.0], [88.0, 84.0, 145.0, 0.0, 0.0, 0.0], [0.0, 0.0, 0.0, 49.0, 0.0, 0.0], [0.0, 0.0, 0.0, 0.0, 72.0, 0.0], [0.0, 0.0, 0.0, 0.0, 0.0, 72.0]], 'homogeneous_poisson': 0.31, 'poisson_ratio': 0.31, 'universal_anisotropy': 0.79, 'elastic_tensor_original': [[144.71208571253322, 83.66965664797142, 89.60639004259902, 0.0, 0.0, 0.0], [83.66615793735996, 144.70645106602305, 89.60219537437519, 0.0, 0.0, 0.0], [87.39222402213552, 87.39222402213552, 154.34494097342042, 0.0, 0.0, 0.0], [0.00023180341600107196, 8.800003138371714e-05, 8.836669818164667e-05, 72.38374734408339, 0.0, 0.0], [-0.0002929801044838422, -0.0005011201787132781, -0.0005579568656490547, 0.0, 72.38345862398042, 0.0], [4.536668586307683e-05, 1.1100004697220332e-06, 1.0000004471057216e-07, 0.0, 0.0, 49.07530338555616]], 'compliance_tensor': [[11.7, -4.5, -4.5, 0.0, 0.0, 0.0], [-4.5, 12.1, -4.3, -0.0, 0.0, -0.0], [-4.5, -4.3, 12.1, -0.0, -0.0, -0.0], [0.0, -0.0, -0.0, 20.4, -0.0, 0.0], [0.0, 0.0, -0.0, -0.0, 13.8, -0.0], [0.0, -0.0, -0.0, 0.0, -0.0, 13.8]], 'warnings': [], 'nsites': 6}",0,47,107,0.79,0.31,123.14
73,mp-570276,ZrZn,"{'Zr': 1.0, 'Zn': 1.0}",0.147455995,6.949384276,"{'G_Reuss': 41.0, 'G_VRH': 47.0, 'G_Voigt': 53.0, 'G_Voigt_Reuss_Hill': 47.0, 'K_Reuss': 108.0, 'K_VRH': 108.0, 'K_Voigt': 108.0, 'K_Voigt_Reuss_Hill': 108.0, 'elastic_anisotropy': 1.39, 'elastic_tensor': [[141.0, 91.0, 91.0, 0.0, 0.0, 0.0], [91.0, 141.0, 91.0, 0.0, 0.0, 0.0], [91.0, 91.0, 141.0, 0.0, 0.0, 0.0], [0.0, 0.0, 0.0, 71.0, 0.0, 0.0], [0.0, 0.0, 0.0, 0.0, 71.0, 0.0], [0.0, 0.0, 0.0, 0.0, 0.0, 71.0]], 'homogeneous_poisson': 0.31, 'poisson_ratio': 0.31, 'universal_anisotropy': 1.39, 'elastic_tensor_original': [[141.37830850019776, 90.56213906295795, 90.56213906295795, 0.0, 0.0, 0.0], [90.56309890058543, 141.37886883378852, 90.56309890058543, 0.0, 0.0, 0.0], [90.56139006008839, 90.56139006008839, 141.37749528844145, 0.0, 0.0, 0.0], [2.126664001954154e-06, -5.3056600176983634e-05, -6.948324626030747e-05, 71.194475072511, 0.0, 0.0], [3.236995943679307e-05, -5.167993523705215e-05, -6.482325209999554e-05, 0.0, 71.19446702252107, 0.0], [9.042655335025707e-05, -1.8053310709816025e-05, -9.833321010084875e-06, 0.0, 0.0, 71.1944854091647]], 'compliance_tensor': [[14.2, -5.5, -5.5, 0.0, -0.0, -0.0], [-5.5, 14.2, -5.5, 0.0, 0.0, 0.0], [-5.5, -5.5, 14.2, -0.0, 0.0, 0.0], [0.0, 0.0, -0.0, 14.0, -0.0, -0.0], [-0.0, 0.0, 0.0, -0.0, 14.0, 0.0], [-0.0, 0.0, 0.0, -0.0, 0.0, 14.0]], 'warnings': [], 'nsites': 2}",0,47,108,1.39,0.31,123.14
74,mp-570506,ZrI2,"{'Zr': 1.0, 'I': 2.0}",0.186571616,5.355360291,"{'G_Reuss': 1.0, 'G_VRH': 8.0, 'G_Voigt': 14.0, 'G_Voigt_Reuss_Hill': 8.0, 'K_Reuss': 1.0, 'K_VRH': 9.0, 'K_Voigt': 17.0, 'K_Voigt_Reuss_Hill': 9.0, 'elastic_anisotropy': 98.54, 'elastic_tensor': [[67.0, -1.0, 8.0, 0.0, 0.0, 0.0], [-1.0, 1.0, -0.0, 0.0, 0.0, 0.0], [8.0, -0.0, 72.0, 0.0, 0.0, 0.0], [0.0, 0.0, 0.0, 0.0, 0.0, 0.0], [0.0, 0.0, 0.0, 0.0, 26.0, 0.0], [0.0, 0.0, 0.0, 0.0, 0.0, 0.0]], 'homogeneous_poisson': 0.17, 'poisson_ratio': 0.17, 'universal_anisotropy': 98.54, 'elastic_tensor_original': [[71.84081235720093, 9.092810253944203, -0.20424170768335095, 0.0, 0.0, 0.0], [7.458141723511989, 66.78739342808362, -1.3944887390379879, 0.0, 0.0, 0.0], [0.10958478751112201, -0.5404613282924174, 1.0741183837762636, 0.0, 0.0, 0.0], [-0.041907224774131856, -0.05626423480488551, -0.09321255532505367, 0.4005799891688723, 0.0, 0.0], [0.00037452592169553804, 0.004003996921896376, 0.005536381351814955, 0.0, 0.4300045808207296, 0.0], [0.019227070954206282, -0.021383513554926487, 0.06584018212791848, 0.0, 0.0, 26.243168727844584]], 'compliance_tensor': [[15.4, 13.8, -1.8, 0.0, 0.0, 0.0], [13.8, 943.4, -1.0, 0.0, 0.0, 0.0], [-1.8, -1.0, 14.1, 0.0, 0.0, 0.0], [0.0, 0.0, 0.0, 2325.6, 0.0, 0.0], [0.0, 0.0, 0.0, 0.0, 38.1, 0.0], [0.0, 0.0, 0.0, 0.0, 0.0, 2496.4]], 'warnings': ['One or more K, G below 2 GPa'], 'nsites': 12}",0,8,9,98.54,0.17,18.72
75,mp-570578,ZrIn3,"{'Zr': 1.0, 'In': 3.0}",0.142602324,7.874312177,"{'G_Reuss': 46.0, 'G_VRH': 48.0, 'G_Voigt': 51.0, 'G_Voigt_Reuss_Hill': 48.0, 'K_Reuss': 72.0, 'K_VRH': 72.0, 'K_Voigt': 73.0, 'K_Voigt_Reuss_Hill': 72.0, 'elastic_anisotropy': 0.57, 'elastic_tensor': [[124.0, 67.0, 36.0, 0.0, 0.0, 0.0], [67.0, 124.0, 36.0, 0.0, 0.0, 0.0], [36.0, 36.0, 129.0, 0.0, 0.0, 0.0], [0.0, 0.0, 0.0, 48.0, 0.0, 0.0], [0.0, 0.0, 0.0, 0.0, 48.0, 0.0], [0.0, 0.0, 0.0, 0.0, 0.0, 79.0]], 'homogeneous_poisson': 0.23, 'poisson_ratio': 0.23, 'universal_anisotropy': 0.57, 'elastic_tensor_original': [[123.55190219246991, 67.02272909769823, 36.03191485520775, 0.0, 0.0, 0.0], [67.02628650463261, 123.5541841929108, 36.036246340763945, 0.0, 0.0, 0.0], [35.68938894596303, 35.68938894596303, 128.6504611441685, 0.0, 0.0, 0.0], [-0.0002855294935909297, -0.0001842163399429076, -0.00021036962689259848, 48.30056953179387, 0.0, 0.0], [4.2389924818598855e-05, 6.344655413913681e-05, 0.00012267644909095437, 0.0, 48.30044671534502, 0.0], [-0.01640460113487427, -0.016341214579742726, -0.018246244561034037, 0.03685901847713187, -0.028744536088504243, 78.75756262350784]], 'compliance_tensor': [[11.8, -5.9, -1.6, -0.0, 0.0, 0.0], [-5.9, 11.8, -1.6, -0.0, -0.0, -0.0], [-1.6, -1.6, 8.7, 0.0, 0.0, 0.0], [-0.0, -0.0, 0.0, 20.7, 0.0, 0.0], [0.0, -0.0, 0.0, 0.0, 20.7, 0.0], [0.0, -0.0, 0.0, 0.0, 0.0, 12.7]], 'warnings': [], 'nsites': 4}",0,48,72,0.57,0.23,118.08
76,mp-570684,ZrOs2,"{'Zr': 1.0, 'Os': 2.0}",0.101812076,15.28262659,"{'G_Reuss': 93.0, 'G_VRH': 94.0, 'G_Voigt': 95.0, 'G_Voigt_Reuss_Hill': 94.0, 'K_Reuss': 265.0, 'K_VRH': 265.0, 'K_Voigt': 265.0, 'K_Voigt_Reuss_Hill': 265.0, 'elastic_anisotropy': 0.15, 'elastic_tensor': [[417.0, 201.0, 189.0, 0.0, 0.0, 0.0], [201.0, 417.0, 189.0, 0.0, 0.0, 0.0], [189.0, 189.0, 394.0, 0.0, 0.0, 0.0], [0.0, 0.0, 0.0, 76.0, 0.0, 0.0], [0.0, 0.0, 0.0, 0.0, 76.0, 0.0], [0.0, 0.0, 0.0, 0.0, 0.0, 108.0]], 'homogeneous_poisson': 0.34, 'poisson_ratio': 0.34, 'universal_anisotropy': 0.15, 'elastic_tensor_original': [[417.3842181890689, 200.04782649511267, 189.11680781754353, 0.0, 0.0, 0.0], [198.10828125396245, 420.1996168394366, 188.36361471935385, 0.0, 0.0, 0.0], [188.9235153980017, 188.9234604622248, 394.03361727543233, 0.0, 0.0, 0.0], [-3.5150059961164615e-05, -4.8253415645073535e-05, 2.3726707140841965e-05, 76.32217626866044, 0.0, 0.0], [-0.00014595701968499511, -0.0005462813212614338, 0.00017082041315378846, 0.0, 76.22236858838565, 0.0], [-0.000663296988734619, -0.00043419689444317813, 0.002433484617809586, 0.0, 0.0, 106.12482464943098]], 'compliance_tensor': [[3.5, -1.2, -1.1, 0.0, 0.0, -0.0], [-1.2, 3.5, -1.1, -0.0, 0.0, -0.0], [-1.1, -1.1, 3.6, -0.0, -0.0, 0.0], [0.0, -0.0, -0.0, 13.1, -0.0, -0.0], [0.0, 0.0, -0.0, -0.0, 13.1, 0.0], [-0.0, -0.0, 0.0, -0.0, 0.0, 9.3]], 'warnings': [], 'nsites': 12}",0,94,265,0.15,0.34,251.92
77,mp-571279,ZrI2,"{'Zr': 1.0, 'I': 2.0}",0.187784498,5.390174918,"{'G_Reuss': 1.0, 'G_VRH': 8.0, 'G_Voigt': 14.0, 'G_Voigt_Reuss_Hill': 8.0, 'K_Reuss': 3.0, 'K_VRH': 11.0, 'K_Voigt': 19.0, 'K_Voigt_Reuss_Hill': 11.0, 'elastic_anisotropy': 114.67, 'elastic_tensor': [[3.0, 1.0, 2.0, 0.0, 0.0, 0.0], [1.0, 74.0, 9.0, 0.0, -0.0, 0.0], [2.0, 9.0, 69.0, 0.0, -0.0, 0.0], [0.0, 0.0, 0.0, 27.0, 0.0, 0.0], [0.0, -0.0, -0.0, 0.0, 0.0, 0.0], [0.0, 0.0, 0.0, 0.0, 0.0, 0.0]], 'homogeneous_poisson': 0.22, 'poisson_ratio': 0.22, 'universal_anisotropy': 114.67, 'elastic_tensor_original': [[73.77645142417971, 8.919017315805513, 2.2690267526629704, -0.19571651720589522, 0.0, 0.0], [9.566758615123709, 69.26668589982194, 2.2191268229246135, -0.20130349913098047, 0.0, 0.0], [0.6579505405485016, 1.5863037538555576, 2.940942742827858, 0.30224745515881735, 0.0, 0.0], [-0.11312530623661546, -0.24130451576549855, -0.28378599448986264, 0.49282071807696004, 0.0, 0.0], [-0.0005824898130743182, 0.008547026375585753, -0.017145088021836036, 0.0012888464611600905, 0.18728759974561182, 0.04615504498733527], [0.002153050983924588, 0.0005543746976118869, 0.0015462237872994992, 0.001346831209532554, 0.030802378796872174, 26.751050365832764]], 'compliance_tensor': [[348.7, -5.8, -8.8, 0.0, -12.1, 0.0], [-5.8, 13.9, -1.7, 0.0, 3.7, 0.0], [-8.8, -1.7, 14.9, 0.0, 6.0, 0.0], [0.0, 0.0, 0.0, 37.4, 0.0, -8.5], [-12.1, 3.7, 6.0, 0.0, 2033.4, 0.0], [0.0, 0.0, 0.0, -8.5, 0.0, 5341.0]], 'warnings': ['c11 and c23 are within 5% or c23 is greater than c11', 'One or more K, G below 2 GPa'], 'nsites': 12}",0.115901667,8,11,114.67,0.22,19.52