,mp_id,Formula,Composition,IPF,Density,Elastic_Tensor,E_above_Hull,G_VRH,K_VRH,Elastic_Anisotropy,poisson_ratio,Y_Modulus
234,mp-11038,Zr6Al2Fe,"{'Zr': 6.0, 'Al': 2.0, 'Fe': 1.0}",0.115935274,5.979508612,"{'G_Reuss': 48.0, 'G_VRH': 48.0, 'G_Voigt': 48.0, 'G_Voigt_Reuss_Hill': 48.0, 'K_Reuss': 105.0, 'K_VRH': 105.0, 'K_Voigt': 105.0, 'K_Voigt_Reuss_Hill': 105.0, 'elastic_anisotropy': 0.0, 'elastic_tensor': [[172.0, 74.0, 71.0, 0.0, 0.0, 0.0], [74.0, 172.0, 71.0, 0.0, 0.0, 0.0], [71.0, 71.0, 166.0, 0.0, 0.0, 0.0], [0.0, 0.0, 0.0, 46.0, 0.0, 0.0], [0.0, 0.0, 0.0, 0.0, 46.0, 0.0], [0.0, 0.0, 0.0, 0.0, 0.0, 49.0]], 'homogeneous_poisson': 0.3, 'poisson_ratio': 0.3, 'universal_anisotropy': 0.0, 'elastic_tensor_original': [[171.03712199109515, 75.05671466427135, 71.69824606128218, 0.0, 0.0, 0.0], [74.26859521357227, 170.80332416918208, 71.02806397490073, 0.0, 0.0, 0.0], [70.94315102328241, 70.94315018319047, 165.63640951094658, 0.0, 0.0, 0.0], [0.27614978654612893, 0.27552960313071906, 0.25618196390355313, 46.461642065478785, 0.0, 0.0], [-0.024959346885215748, 0.03085372851122365, 0.0056762448991662644, 0.0, 46.31065857512881, 0.0], [-5.3610015099184656e-05, -4.40766790803003e-05, -4.6836679857507906e-05, 0.0, 0.0, 49.79881746182541]], 'compliance_tensor': [[7.8, -2.4, -2.3, 0.0, 0.0, 0.0], [-2.4, 7.8, -2.3, 0.0, -0.0, 0.0], [-2.3, -2.3, 8.0, -0.0, 0.0, -0.0], [0.0, -0.0, -0.0, 21.6, 0.0, -0.0], [0.0, -0.0, -0.0, 0.0, 21.6, -0.0], [0.0, 0.0, -0.0, -0.0, -0.0, 20.4]], 'warnings': [], 'nsites': 9}",0.682306278,48,105,0,0.3,124.8
235,mp-12972,Zr6Sb2Pt,"{'Zr': 6.0, 'Sb': 2.0, 'Pt': 1.0}",0.114761292,8.182856687,"{'G_Reuss': 58.0, 'G_VRH': 59.0, 'G_Voigt': 60.0, 'G_Voigt_Reuss_Hill': 59.0, 'K_Reuss': 119.0, 'K_VRH': 119.0, 'K_Voigt': 120.0, 'K_Voigt_Reuss_Hill': 119.0, 'elastic_anisotropy': 0.18, 'elastic_tensor': [[198.0, 86.0, 86.0, 0.0, 0.0, 0.0], [86.0, 198.0, 86.0, 0.0, 0.0, 0.0], [86.0, 86.0, 166.0, 0.0, 0.0, 0.0], [0.0, 0.0, 0.0, 72.0, 0.0, 0.0], [0.0, 0.0, 0.0, 0.0, 72.0, 0.0], [0.0, 0.0, 0.0, 0.0, 0.0, 56.0]], 'homogeneous_poisson': 0.29, 'poisson_ratio': 0.29, 'universal_anisotropy': 0.18, 'elastic_tensor_original': [[197.97122648950335, 85.79259578599306, 85.14301782800929, 0.0, 0.0, 0.0], [85.94865028359614, 197.90602130553103, 85.39634079156498, 0.0, 0.0, 0.0], [85.90249419913289, 85.90250077910125, 165.73453576277396, 0.0, 0.0, 0.0], [4.655333450744227e-05, 2.4126667276365607e-05, 6.606333499929356e-05, 72.43839842332139, 0.0, 0.0], [7.962338039208475e-05, 8.656480374475e-06, 3.599653130329182e-05, 0.0, 72.4777340750361, 0.0], [3.084999974090848e-05, 2.8899871105421154e-06, 3.0666408957406513e-06, 0.0, 0.0, 55.78297453207877]], 'compliance_tensor': [[7.0, -1.9, -2.6, -0.0, 0.0, 0.0], [-1.9, 7.0, -2.6, -0.0, 0.0, 0.0], [-2.6, -2.6, 8.8, 0.0, -0.0, -0.0], [-0.0, -0.0, 0.0, 13.8, 0.0, 0.0], [0.0, 0.0, -0.0, 0.0, 13.8, -0.0], [0.0, 0.0, -0.0, 0.0, -0.0, 17.9]], 'warnings': [], 'nsites': 9}",0,59,119,0.18,0.29,152.22
236,mp-556536,Na2Zr(CuS2)2,"{'Na': 2.0, 'Zr': 1.0, 'Cu': 2.0, 'S': 4.0}",0.188508509,3.866808713,"{'G_Reuss': 9.0, 'G_VRH': 16.0, 'G_Voigt': 24.0, 'G_Voigt_Reuss_Hill': 16.0, 'K_Reuss': 44.0, 'K_VRH': 45.0, 'K_Voigt': 47.0, 'K_Voigt_Reuss_Hill': 45.0, 'elastic_anisotropy': 8.43, 'elastic_tensor': [[106.0, 22.0, 28.0, 0.0, -18.0, 0.0], [22.0, 116.0, 18.0, 0.0, 2.0, 0.0], [28.0, 18.0, 62.0, 0.0, 6.0, 0.0], [0.0, 0.0, 0.0, 3.0, 0.0, -1.0], [-18.0, 2.0, 6.0, 0.0, 18.0, 0.0], [0.0, 0.0, 0.0, -1.0, 0.0, 26.0]], 'homogeneous_poisson': 0.34, 'poisson_ratio': 0.34, 'universal_anisotropy': 8.43, 'elastic_tensor_original': [[105.54203466788228, 18.430516532002766, 31.923468307877542, 1.4000049778925037e-06, -17.18057008766211, -8.200029156227521e-06], [24.925428275430814, 116.2814846943907, 19.939629770292697, 0.0, 5.625382323960014, 0.0], [25.154698720825948, 16.621744425176573, 61.640686363592074, -1.9999944440614686e-07, 3.1027233807058647, -1.9999944440614684e-06], [0.0, 8.022900750487364e-10, 0.0, 2.805312134538256, 0.0, -0.5051932415918822], [-19.9449566854273, -0.6464099707543408, 8.765097937521995, -1.400012065289279e-06, 18.504895774997497, 1.600013788902033e-06], [0.0, -4.108081988998822e-08, 0.0, -2.26632490090597, 0.0, 26.186070064021013]], 'compliance_tensor': [[15.251171972238602, -1.94207667374071, -8.207957308840689, 1.4614674718463491e-08, 18.230446166076845, 2.763990239767902e-08], [-1.9420766737407096, 9.270316314177618, -1.5942141829686183, 5.9446562585417e-19, -2.6936948439916875, 1.4540512506092573e-08], [-8.20795730884069, -1.5942141829686178, 21.919017959461705, 1.1636419205725454e-17, -15.106767819698408, -2.5005286199192716e-09], [1.4614674718463498e-08, 5.944671400861741e-19, 1.1636414704842766e-17, 366.12061662272544, 2.8713051552552033e-07, 18.635196993690545], [18.230446166076845, -2.6936948439916875, -15.106767819698408, 2.8713051552552033e-07, 77.91580768890744, 1.038960814830001e-08], [2.7639902397679017e-08, 1.4540512506092577e-08, -2.500528619919273e-09, 18.635196993690542, 1.0389608148300016e-08, 39.12784066759736]], 'warnings': [], 'nsites': 9}",0,16,45,8.43,0.34,42.88
237,mp-865924,LiZrAu2,"{'Li': 1.0, 'Zr': 1.0, 'Au': 2.0}",0.218135429,11.15392461,"{'G_Reuss': 9.0, 'G_VRH': 11.0, 'G_Voigt': 12.0, 'G_Voigt_Reuss_Hill': 11.0, 'K_Reuss': 102.0, 'K_VRH': 102.0, 'K_Voigt': 102.0, 'K_Voigt_Reuss_Hill': 102.0, 'elastic_anisotropy': 1.79, 'elastic_tensor': [[109.0, 98.0, 98.0, 0.0, 0.0, 0.0], [98.0, 109.0, 98.0, 0.0, 0.0, 0.0], [98.0, 98.0, 109.0, 0.0, 0.0, 0.0], [0.0, 0.0, 0.0, 17.0, 0.0, 0.0], [0.0, 0.0, 0.0, 0.0, 17.0, 0.0], [0.0, 0.0, 0.0, 0.0, 0.0, 17.0]], 'homogeneous_poisson': 0.45, 'poisson_ratio': 0.45, 'universal_anisotropy': 1.79, 'elastic_tensor_original': [[108.84042187227396, 97.24817898553849, 97.24817898553849, 0.0, 0.0, 0.0], [98.89016771231688, 109.26413475139589, 98.89016771231688, 0.0, 0.0, 0.0], [98.88202624711845, 98.88202624711845, 109.25556549220869, 0.0, 0.0, 0.0], [0.0005982161998596475, 0.0005640295468761793, 0.0005955995094137392, 17.128826852333237, 0.0, 0.0], [-5.465656358072019e-05, -0.00012053652785519465, -9.660321825218696e-05, 0.0, 17.128626435845366, 0.0], [0.00027071651558246756, 0.00033437979724768393, 0.00039098640397689806, 0.0, 0.0, 17.129256895296653]], 'compliance_tensor': [[62.9, -29.8, -29.8, -0.0, -0.0, 0.0], [-29.8, 62.9, -29.8, 0.0, -0.0, -0.0], [-29.8, -29.8, 62.9, 0.0, 0.0, -0.0], [-0.0, 0.0, 0.0, 58.4, 0.0, -0.0], [-0.0, -0.0, 0.0, 0.0, 58.4, -0.0], [0.0, -0.0, -0.0, -0.0, -0.0, 58.4]], 'warnings': [], 'nsites': 4}",0,11,102,1.79,0.45,31.9
238,mp-8891,K2Zr(BO3)2,"{'K': 2.0, 'Zr': 1.0, 'B': 2.0, 'O': 6.0}",0.558270702,3.208382073,"{'G_Reuss': 26.0, 'G_VRH': 37.0, 'G_Voigt': 47.0, 'G_Voigt_Reuss_Hill': 37.0, 'K_Reuss': 60.0, 'K_VRH': 74.0, 'K_Voigt': 88.0, 'K_Voigt_Reuss_Hill': 74.0, 'elastic_anisotropy': 4.57, 'elastic_tensor': [[226.0, 68.0, 34.0, -5.0, 0.0, 0.0], [68.0, 226.0, 34.0, 5.0, 0.0, 0.0], [34.0, 34.0, 68.0, 0.0, 0.0, 0.0], [-5.0, 5.0, 0.0, 15.0, 0.0, 0.0], [0.0, 0.0, 0.0, 0.0, 15.0, -5.0], [0.0, 0.0, 0.0, 0.0, -5.0, 79.0]], 'homogeneous_poisson': 0.29, 'poisson_ratio': 0.29, 'universal_anisotropy': 4.57, 'elastic_tensor_original': [[227.85760446195508, 66.60480691379342, 36.76290227327774, -3.7531374748884456, 0.0, 0.0], [65.19093204392122, 228.81876798067037, 39.948506735489765, 5.082607221110234, 0.0, 0.0], [29.664232984120826, 29.6642511838624, 67.6471728471551, 0.0, 0.0, 0.0], [1.5629431673687926, 13.165714440750365, 11.47459087633211, 13.295161932828037, 0.0, 0.0], [0.0, 0.0, 0.0, 0.0, 16.779554678844033, -4.901492130283346], [0.0, 0.0, 0.0, 0.0, -6.138753515344412, 76.35150243441339]], 'compliance_tensor': [[5.173458847763344, -1.3278752334416022, -1.9333869259573142, 2.2978622594153415, 1.7612942812933476e-15, 3.147406741745996e-16], [-1.3278752334416015, 5.1734554490536535, -1.9333862425588588, -2.297864845895784, -1.861995655776458e-16, -1.3612160911420755e-16], [-1.9333869259573153, -1.9333862425588586, 16.726624377336783, -1.8826707943028356e-06, 8.202953843442844e-16, -5.742506905419528e-17], [2.297862259415342, -2.297864845895785, -1.882670794176325e-06, 68.12536477377165, 3.482676501140597e-16, 1.9754923100937092e-15], [1.77755448236768e-15, -1.0681517675771185e-16, 7.722095316128179e-16, 9.54178560802369e-16, 68.12538885419802, 4.595720249666719], [1.1759302577610503e-16, 6.386539295587654e-17, -5.885259804960193e-17, 1.7603681015649003e-15, 4.595720249666719, 13.002663729153133]], 'warnings': [], 'nsites': 11}",0,37,74,4.57,0.29,95.46
239,mp-9318,KZrCuSe3,"{'K': 1.0, 'Zr': 1.0, 'Cu': 1.0, 'Se': 3.0}",0.218962465,4.780797796,"{'G_Reuss': 13.0, 'G_VRH': 18.0, 'G_Voigt': 22.0, 'G_Voigt_Reuss_Hill': 18.0, 'K_Reuss': 14.0, 'K_VRH': 23.0, 'K_Voigt': 32.0, 'K_Voigt_Reuss_Hill': 23.0, 'elastic_anisotropy': 4.5, 'elastic_tensor': [[101.0, 4.0, 17.0, 0.0, 0.0, 0.0], [4.0, 15.0, 14.0, 0.0, 0.0, 0.0], [17.0, 14.0, 102.0, 0.0, 0.0, 0.0], [0.0, 0.0, 0.0, 12.0, 0.0, 0.0], [0.0, 0.0, 0.0, 0.0, 26.0, 0.0], [0.0, 0.0, 0.0, 0.0, 0.0, 10.0]], 'homogeneous_poisson': 0.19, 'poisson_ratio': 0.19, 'universal_anisotropy': 4.5, 'elastic_tensor_original': [[101.37221465352943, 1.3439545040849352, 21.829230713741136, 0.0, 0.0, 0.0], [6.485236384810824, 14.792398746666533, 19.220127681500454, 0.0, 0.0, 0.0], [11.926810728258957, 9.183799723846498, 101.67564611118996, 0.0, 0.0, 0.0], [0.0, 0.0, 1.603519948959415e-08, 12.026257144050518, 0.0, 0.0], [0.0, 0.0, 0.0, 0.0, 26.212185125614347, 0.0], [0.0, 0.0, 0.0, 0.0, 0.0, 9.774213808431663]], 'compliance_tensor': [[10.164543811971019, -1.2356537384457877, -1.514705609709721, -1.6475569599775265e-09, 0.0, 0.0], [-1.2356537384457875, 78.22226302106587, -10.720899177494575, 1.042975292637656e-07, 0.0, 0.0], [-1.514705609709721, -10.720899177494575, 11.5841216524718, 4.114019274570667e-08, 0.0, 0.0], [-1.6475569599775236e-09, 1.0429752926376558e-07, 4.1140192745706656e-08, 83.15139016420481, 0.0, 0.0], [0.0, 0.0, 0.0, 0.0, 38.15019599502249, 6.820745002495405e-08], [0.0, 0.0, 0.0, 0.0, 6.820745002495405e-08, 102.31001895388829]], 'warnings': [], 'nsites': 12}",0,18,23,4.5,0.19,42.84
240,mp-977545,ZrTc2W,"{'Zr': 1.0, 'Tc': 2.0, 'W': 1.0}",0.120814968,11.85792313,"{'G_Reuss': 104.0, 'G_VRH': 109.0, 'G_Voigt': 113.0, 'G_Voigt_Reuss_Hill': 109.0, 'K_Reuss': 198.0, 'K_VRH': 198.0, 'K_Voigt': 198.0, 'K_Voigt_Reuss_Hill': 198.0, 'elastic_anisotropy': 0.44, 'elastic_tensor': [[405.0, 94.0, 94.0, 0.0, 0.0, 0.0], [94.0, 405.0, 94.0, 0.0, 0.0, 0.0], [94.0, 94.0, 405.0, 0.0, 0.0, 0.0], [0.0, 0.0, 0.0, 86.0, 0.0, 0.0], [0.0, 0.0, 0.0, 0.0, 86.0, 0.0], [0.0, 0.0, 0.0, 0.0, 0.0, 86.0]], 'homogeneous_poisson': 0.27, 'poisson_ratio': 0.27, 'universal_anisotropy': 0.44, 'elastic_tensor_original': [[404.5598171809089, 94.14659762581984, 94.14659762581984, 0.0, 0.0, 0.0], [94.14659762581982, 404.5598171809089, 94.14659762581982, 0.0, 0.0, 0.0], [94.14659762581982, 94.14659762581982, 404.5598171809089, 0.0, 0.0, 0.0], [0.0, 0.0, 0.0, 85.61374087339809, 0.0, 0.0], [0.0, 0.0, 0.0, 0.0, 85.61374087339804, 0.0], [0.0, 0.0, 0.0, 0.0, 0.0, 85.61374087339804]], 'compliance_tensor': [[2.7, -0.5, -0.5, 0.0, -0.0, 0.0], [-0.5, 2.7, -0.5, -0.0, 0.0, -0.0], [-0.5, -0.5, 2.7, -0.0, -0.0, 0.0], [0.0, -0.0, -0.0, 11.7, -0.0, -0.0], [-0.0, 0.0, -0.0, -0.0, 11.7, -0.0], [0.0, -0.0, 0.0, -0.0, -0.0, 11.7]], 'warnings': [], 'nsites': 4}",0,109,198,0.44,0.27,276.86
241,mp-9929,ZrCuSiAs,"{'Zr': 1.0, 'Cu': 1.0, 'Si': 1.0, 'As': 1.0}",0.104449215,6.538643607,"{'G_Reuss': 78.0, 'G_VRH': 79.0, 'G_Voigt': 80.0, 'G_Voigt_Reuss_Hill': 79.0, 'K_Reuss': 136.0, 'K_VRH': 137.0, 'K_Voigt': 137.0, 'K_Voigt_Reuss_Hill': 137.0, 'elastic_anisotropy': 0.11, 'elastic_tensor': [[245.0, 99.0, 85.0, 0.0, 0.0, 0.0], [99.0, 245.0, 85.0, 0.0, 0.0, 0.0], [85.0, 85.0, 208.0, 0.0, 0.0, 0.0], [0.0, 0.0, 0.0, 78.0, 0.0, 0.0], [0.0, 0.0, 0.0, 0.0, 78.0, 0.0], [0.0, 0.0, 0.0, 0.0, 0.0, 102.0]], 'homogeneous_poisson': 0.26, 'poisson_ratio': 0.26, 'universal_anisotropy': 0.11, 'elastic_tensor_original': [[244.62452764999733, 99.37871757657119, 83.26230030181512, 0.0, 0.0, 0.0], [99.37871757657119, 244.62452764999733, 83.26230030181513, 0.0, 0.0, 0.0], [87.388694255642, 87.388694255642, 207.79212609178825, 0.0, 0.0, 0.0], [0.0, 0.0, 0.0, 77.62658366961126, 0.0, 0.0], [0.0, 0.0, 0.0, 0.0, 77.62658366961126, 0.0], [1.0182820560721793, -1.0182820560721761, 0.0, 0.0, 0.0, 101.82390437403356]], 'compliance_tensor': [[5.3, -1.6, -1.5, 0.0, 0.0, 0.0], [-1.6, 5.3, -1.5, 0.0, 0.0, 0.0], [-1.5, -1.5, 6.0, 0.0, 0.0, 0.0], [0.0, 0.0, 0.0, 12.9, 0.0, 0.0], [0.0, 0.0, 0.0, 0.0, 12.9, 0.0], [0.0, 0.0, 0.0, 0.0, 0.0, 9.8]], 'warnings': [], 'nsites': 8}",0,79,137,0.11,0.26,199.08
242,mp-40143,Cs2KZrOF5,"{'Cs': 2.0, 'K': 1.0, 'Zr': 1.0, 'O': 1.0, 'F': 5.0}",0.389510248,3.962898474,"{'G_Reuss': 13.0, 'G_VRH': 14.0, 'G_Voigt': 15.0, 'G_Voigt_Reuss_Hill': 14.0, 'K_Reuss': 12.0, 'K_VRH': 13.0, 'K_Voigt': 13.0, 'K_Voigt_Reuss_Hill': 13.0, 'elastic_anisotropy': 0.75, 'elastic_tensor': [[33.0, 6.0, -5.0, 0.0, 0.0, 0.0], [6.0, 33.0, -5.0, 0.0, 0.0, 0.0], [-5.0, -5.0, 56.0, 0.0, 0.0, 0.0], [0.0, 0.0, 0.0, 10.0, 0.0, 0.0], [0.0, 0.0, 0.0, 0.0, 10.0, 0.0], [0.0, 0.0, 0.0, 0.0, 0.0, 13.0]], 'homogeneous_poisson': 0.09, 'poisson_ratio': 0.09, 'universal_anisotropy': 0.75, 'elastic_tensor_original': [[33.1605183072504, 5.726050061978844, 8.7499991407814, -9.999860048552238e-07, 4.999930024276118e-06, 0.0], [5.72604662870416, 33.16051830724944, 8.749996517580222, -8.891334832250291e-07, 9.399097135515956e-07, 0.0], [-18.67960720737627, -18.67961280731314, 56.30178045754876, -5.799934611930872e-06, -2.799968433345938e-06, 0.0], [0.0, -2.1885287881902226e-06, 0.0, 10.425595378388396, 1.4534368644964168e-08, 0.0], [0.0, 0.0, 3.125534935997567e-06, -1.4534537567030378e-08, 10.425595378388385, -1.0942642343901801e-06], [0.1338592633827167, -0.1338593035142589, 0.0, 1.6939379710767e-06, -3.5054858528467007e-07, 13.385304934494968]], 'compliance_tensor': [[31.37935990854701, -5.071144127949903, 2.3199117632179225, 4.869930928329883e-07, -9.407356897782932e-06, -9.855230281612538e-13], [-5.071144127949903, 31.3793410938435, 2.3199110677209425, 1.0554464428701849e-05, 1.520300695509772e-06, -1.0144606949930821e-12], [2.3199117632179203, 2.3199110677209434, 18.170576708756204, 3.814345654318846e-06, -1.5073306718080069e-05, -1.5819675730706426e-12], [4.869930928329866e-07, 1.0554464428701855e-05, 3.8143456543188468e-06, 95.91776908739291, -3.161724322686644e-12, -1.1198639780411736e-05], [-9.407356897782935e-06, 1.5203006955097713e-06, -1.5073306718080069e-05, -3.1617243226866473e-12, 95.91779784300384, 1.0067474500049221e-05], [-9.85514894687633e-13, -1.014462009424515e-12, -1.5819669717536895e-12, -1.119863978041173e-05, 1.0067474500049228e-05, 74.70879482341324]], 'warnings': [], 'nsites': 10}",0,14,13,0.75,0.09,30.52