,mp_id,Formula,Composition,IPF,Density,Elastic_Tensor,E_above_Hull,G_VRH,K_VRH,Elastic_Anisotropy,poisson_ratio,Y_Modulus
195,mp-1029660,Ca4ZrN4,"{'Ca': 4.0, 'Zr': 1.0, 'N': 4.0}",0.203629121,3.283018873,"{'G_Reuss': 38.0, 'G_VRH': 41.0, 'G_Voigt': 43.0, 'G_Voigt_Reuss_Hill': 41.0, 'K_Reuss': 86.0, 'K_VRH': 87.0, 'K_Voigt': 87.0, 'K_Voigt_Reuss_Hill': 87.0, 'elastic_anisotropy': 0.64, 'elastic_tensor': [[154.0, 50.0, 60.0, -11.0, 6.0, 3.0], [50.0, 162.0, 49.0, -2.0, -1.0, 6.0], [60.0, 49.0, 151.0, 5.0, -9.0, 3.0], [-11.0, -2.0, 5.0, 46.0, 0.0, 1.0], [6.0, -1.0, -9.0, 0.0, 38.0, -9.0], [3.0, 6.0, 3.0, 1.0, -9.0, 29.0]], 'homogeneous_poisson': 0.3, 'poisson_ratio': 0.3, 'universal_anisotropy': 0.64, 'elastic_tensor_original': [[151.30528236531913, 49.12352159985956, 59.43810403503253, -3.9966637969412915, -8.454305281512108, -5.794828643470979], [49.00365601846099, 162.21290639637874, 49.67175958298726, -4.376111703580831, -1.7048088504517804, 1.5156873339764945], [59.65391152225279, 49.73615475345956, 153.64675365352295, -5.374414758322741, 4.754054032278668, 11.104138081516792], [-2.2603282724473495, -5.684733754873454, -2.313342550194909, 29.07869001127794, 8.622592152269545, -0.767066643663409], [-10.499903439494227, -0.727241004951561, 8.793887625982908, 8.642947368134436, 37.854236597391385, -0.019989190315836337], [-4.375184229790559, 2.664038596639798, 11.595433394237096, 1.1711919771279113, 0.15473622091501216, 46.043805139944816]], 'compliance_tensor': [[8.5, -1.6, -3.0, 2.4, -2.3, -0.9], [-1.6, 7.3, -1.7, 0.1, -0.3, -1.4], [-3.0, -1.7, 8.6, -1.8, 2.7, 0.7], [2.4, 0.1, -1.8, 22.6, -1.1, -0.9], [-2.3, -0.3, 2.7, -1.1, 29.5, 9.0], [-0.9, -1.4, 0.7, -0.9, 9.0, 37.3]], 'warnings': [], 'nsites': 18}",0,41,87,0.64,0.3,106.6
196,mp-11533,ZrZnNi4,"{'Zr': 1.0, 'Zn': 1.0, 'Ni': 4.0}",0.158045982,8.345601093,"{'G_Reuss': 70.0, 'G_VRH': 71.0, 'G_Voigt': 73.0, 'G_Voigt_Reuss_Hill': 71.0, 'K_Reuss': 167.0, 'K_VRH': 167.0, 'K_Voigt': 167.0, 'K_Voigt_Reuss_Hill': 167.0, 'elastic_anisotropy': 0.21, 'elastic_tensor': [[241.0, 130.0, 130.0, 0.0, 0.0, 0.0], [130.0, 241.0, 130.0, 0.0, 0.0, 0.0], [130.0, 130.0, 241.0, 0.0, 0.0, 0.0], [0.0, 0.0, 0.0, 84.0, 0.0, 0.0], [0.0, 0.0, 0.0, 0.0, 84.0, 0.0], [0.0, 0.0, 0.0, 0.0, 0.0, 84.0]], 'homogeneous_poisson': 0.31, 'poisson_ratio': 0.31, 'universal_anisotropy': 0.21, 'elastic_tensor_original': [[241.93066900060975, 130.58597757070783, 130.58597757070783, 0.0, 0.0, 0.0], [129.4499454059183, 239.95275552739827, 129.4499454059183, 0.0, 0.0, 0.0], [129.5607965172847, 129.5607965172847, 240.28338643385757, 0.0, 0.0, 0.0], [-0.04283783915465236, -0.04193094343453092, -0.04175138296102986, 83.95712097300562, 0.0, 0.0], [-0.04402884042266224, -0.04492796964378898, -0.04384331330893186, 0.0, 83.95738927032721, 0.0], [0.00032198008714879857, 0.00032192342546246485, 0.00031669009673441806, 0.0, 0.0, 83.95518800113362]], 'compliance_tensor': [[6.7, -2.3, -2.3, 0.0, 0.0, -0.0], [-2.3, 6.7, -2.3, 0.0, 0.0, 0.0], [-2.3, -2.3, 6.7, 0.0, 0.0, -0.0], [0.0, 0.0, 0.0, 11.9, 0.0, 0.0], [0.0, 0.0, 0.0, 0.0, 11.9, 0.0], [-0.0, 0.0, -0.0, 0.0, 0.0, 11.9]], 'warnings': [], 'nsites': 6}",0,71,167,0.21,0.31,186.02
197,mp-11583,Zr2SN2,"{'Zr': 2.0, 'S': 1.0, 'N': 2.0}",0.138106651,5.411485858,"{'G_Reuss': 68.0, 'G_VRH': 68.0, 'G_Voigt': 69.0, 'G_Voigt_Reuss_Hill': 68.0, 'K_Reuss': 159.0, 'K_VRH': 159.0, 'K_Voigt': 160.0, 'K_Voigt_Reuss_Hill': 159.0, 'elastic_anisotropy': 0.12, 'elastic_tensor': [[259.0, 142.0, 97.0, 0.0, 0.0, 0.0], [142.0, 259.0, 97.0, 0.0, 0.0, 0.0], [97.0, 97.0, 247.0, 0.0, 0.0, 0.0], [0.0, 0.0, 0.0, 72.0, 0.0, 0.0], [0.0, 0.0, 0.0, 0.0, 72.0, 0.0], [0.0, 0.0, 0.0, 0.0, 0.0, 59.0]], 'homogeneous_poisson': 0.31, 'poisson_ratio': 0.31, 'universal_anisotropy': 0.12, 'elastic_tensor_original': [[259.59614657609933, 142.23065539851362, 96.63393032356096, 0.0, 0.0, 0.0], [141.7918014762488, 260.01227396505186, 97.07067210456623, 0.0, 0.0, 0.0], [97.60307476783866, 97.59967386554743, 247.33497543831305, 0.00013293044694212807, 0.00010846964071748312, 0.00015205799541615376], [-0.0003009896137800861, -0.00019391639115726736, -1.725660036070833e-05, 72.19136182439311, 0.0, 0.0], [-0.00012208671918381096, 0.00025510322524327955, -0.00022891653148745438, 0.0, 72.27150505051422, 0.0], [-0.00015028997643434886, 0.0002857967273221234, -3.473987816289347e-05, 0.0, 0.0, 58.13376093995034]], 'compliance_tensor': [[5.8, -2.7, -1.2, 0.0, 0.0, -0.0], [-2.7, 5.8, -1.2, -0.0, -0.0, -0.0], [-1.2, -1.2, 5.0, -0.0, -0.0, 0.0], [0.0, -0.0, -0.0, 13.8, -0.0, -0.0], [0.0, 0.0, -0.0, -0.0, 13.8, 0.0], [-0.0, -0.0, 0.0, -0.0, -0.0, 17.1]], 'warnings': [], 'nsites': 10}",0,68,159,0.12,0.31,178.16
198,mp-12962,Zr6FeSb2,"{'Zr': 6.0, 'Fe': 1.0, 'Sb': 2.0}",0.120960578,7.276886289,"{'G_Reuss': 58.0, 'G_VRH': 58.0, 'G_Voigt': 59.0, 'G_Voigt_Reuss_Hill': 58.0, 'K_Reuss': 113.0, 'K_VRH': 113.0, 'K_Voigt': 113.0, 'K_Voigt_Reuss_Hill': 113.0, 'elastic_anisotropy': 0.11, 'elastic_tensor': [[189.0, 87.0, 74.0, 0.0, 0.0, 0.0], [87.0, 189.0, 74.0, 0.0, 0.0, 0.0], [74.0, 74.0, 172.0, 0.0, 0.0, 0.0], [0.0, 0.0, 0.0, 69.0, 0.0, 0.0], [0.0, 0.0, 0.0, 0.0, 69.0, 0.0], [0.0, 0.0, 0.0, 0.0, 0.0, 51.0]], 'homogeneous_poisson': 0.28, 'poisson_ratio': 0.28, 'universal_anisotropy': 0.11, 'elastic_tensor_original': [[189.29981154612005, 84.9608510855811, 73.99258772931229, 0.0, 0.0, 0.0], [86.40015731023122, 190.17294306065523, 74.80701153662612, 0.0, 0.0, 0.0], [74.50824483774866, 74.50822305854231, 172.4656758389429, 0.0, 0.0, 0.0], [-0.0017303635383747874, -0.002003116866478482, -0.0011414569651580378, 68.90958669949339, 0.0, 0.0], [0.0003845267606162513, 0.000329146747085349, 0.0002315733899123036, 0.0, 69.0141299618675, 0.0], [0.37984365106985835, 0.39439273621784526, 0.3455848356144426, 0.0, 0.0, 49.89994981983882]], 'compliance_tensor': [[7.3, -2.5, -2.0, 0.0, 0.0, -0.0], [-2.5, 7.3, -2.0, 0.0, 0.0, -0.0], [-2.0, -2.0, 7.6, 0.0, 0.0, 0.0], [0.0, -0.0, -0.0, 14.5, -0.0, -0.0], [0.0, -0.0, -0.0, -0.0, 14.5, -0.0], [-0.0, -0.0, 0.0, 0.0, 0.0, 19.6]], 'warnings': [], 'nsites': 9}",0,58,113,0.11,0.28,148.48
199,mp-20697,ZrNiSb,"{'Zr': 1.0, 'Ni': 1.0, 'Sb': 1.0}",0.124344506,8.30210439,"{'G_Reuss': 53.0, 'G_VRH': 54.0, 'G_Voigt': 56.0, 'G_Voigt_Reuss_Hill': 54.0, 'K_Reuss': 134.0, 'K_VRH': 135.0, 'K_Voigt': 135.0, 'K_Voigt_Reuss_Hill': 135.0, 'elastic_anisotropy': 0.29, 'elastic_tensor': [[197.0, 83.0, 103.0, 0.0, 0.0, 0.0], [83.0, 199.0, 125.0, 0.0, 0.0, 0.0], [103.0, 125.0, 197.0, 0.0, 0.0, 0.0], [0.0, 0.0, 0.0, 65.0, 0.0, 0.0], [0.0, 0.0, 0.0, 0.0, 63.0, 0.0], [0.0, 0.0, 0.0, 0.0, 0.0, 56.0]], 'homogeneous_poisson': 0.32, 'poisson_ratio': 0.32, 'universal_anisotropy': 0.29, 'elastic_tensor_original': [[196.91450012713105, 102.67315947579057, 123.22011300342507, 0.0, 0.0, 0.0], [104.31792351973522, 197.2993542636997, 83.8936840339827, 0.0, 0.0, 0.0], [126.43871898894342, 82.46229253690909, 198.8591974040027, 0.0, 0.0, 0.0], [-0.0008630293351988812, -0.0009317726155768562, -0.0008485760129985666, 56.484168559616855, 0.0, 0.0], [-0.09728048387732087, -0.10418152363381211, -0.05911896169174958, 0.0, 65.36155892205858, 0.0], [-0.037835138288659254, -0.04260586311657099, -0.04215510932708106, 0.0, 0.0, 62.79648126921089]], 'compliance_tensor': [[7.1, -1.0, -3.1, 0.0, -0.0, 0.0], [-1.0, 8.5, -4.8, 0.0, -0.0, 0.0], [-3.1, -4.8, 9.8, 0.0, 0.0, 0.0], [0.0, 0.0, 0.0, 15.3, 0.0, 0.0], [-0.0, -0.0, 0.0, 0.0, 15.9, 0.0], [0.0, 0.0, 0.0, 0.0, 0.0, 17.7]], 'warnings': [], 'nsites': 12}",0,54,135,0.29,0.32,142.56
200,mp-22036,ZrSbPd,"{'Zr': 1.0, 'Sb': 1.0, 'Pd': 1.0}",0.126292268,8.815969473,"{'G_Reuss': 34.0, 'G_VRH': 36.0, 'G_Voigt': 38.0, 'G_Voigt_Reuss_Hill': 36.0, 'K_Reuss': 128.0, 'K_VRH': 128.0, 'K_Voigt': 129.0, 'K_Voigt_Reuss_Hill': 128.0, 'elastic_anisotropy': 0.47, 'elastic_tensor': [[167.0, 85.0, 114.0, 0.0, 0.0, 0.0], [85.0, 198.0, 112.0, 0.0, 0.0, 0.0], [114.0, 112.0, 174.0, 0.0, 0.0, 0.0], [0.0, 0.0, 0.0, 52.0, 0.0, 0.0], [0.0, 0.0, 0.0, 0.0, 34.0, 0.0], [0.0, 0.0, 0.0, 0.0, 0.0, 27.0]], 'homogeneous_poisson': 0.37, 'poisson_ratio': 0.37, 'universal_anisotropy': 0.47, 'elastic_tensor_original': [[173.50427447157503, 113.63003827870388, 113.30313604198776, 0.0, 0.0, 0.0], [113.96704176062123, 166.8727766695323, 84.78151646389519, 0.0, 0.0, 0.0], [111.35683968020606, 85.90593942851076, 198.12505151017922, 0.0, 0.0, 0.0], [-0.0018998550284210223, 0.001388475469385103, 0.0022699747092674036, 26.84167506775181, 0.0, 0.0], [-0.11466416090058254, 0.022503719927257974, -0.017559660347243187, 0.0, 52.22945892684348, 0.0], [-0.03817992603427788, 0.01335469460707423, 0.0005167236405659336, 0.0, 0.0, 33.56613295101795]], 'compliance_tensor': [[11.0, -1.0, -6.5, 0.0, 0.0, 0.0], [-1.0, 8.1, -4.6, 0.0, 0.0, 0.0], [-6.5, -4.6, 13.0, 0.0, -0.0, 0.0], [0.0, 0.0, 0.0, 19.1, 0.0, 0.0], [0.0, 0.0, -0.0, 0.0, 29.8, 0.0], [0.0, 0.0, 0.0, 0.0, 0.0, 37.3]], 'warnings': [], 'nsites': 12}",0,36,128,0.47,0.37,98.64
201,mp-22150,Zr2InCo2,"{'Zr': 2.0, 'In': 1.0, 'Co': 2.0}",0.146352512,8.00208265,"{'G_Reuss': 51.0, 'G_VRH': 53.0, 'G_Voigt': 54.0, 'G_Voigt_Reuss_Hill': 53.0, 'K_Reuss': 132.0, 'K_VRH': 132.0, 'K_Voigt': 132.0, 'K_Voigt_Reuss_Hill': 132.0, 'elastic_anisotropy': 0.25, 'elastic_tensor': [[179.0, 106.0, 106.0, 0.0, 0.0, 0.0], [106.0, 190.0, 103.0, 0.0, 0.0, 0.0], [106.0, 103.0, 190.0, 0.0, 0.0, 0.0], [0.0, 0.0, 0.0, 62.0, 0.0, 0.0], [0.0, 0.0, 0.0, 0.0, 63.0, 0.0], [0.0, 0.0, 0.0, 0.0, 0.0, 63.0]], 'homogeneous_poisson': 0.32, 'poisson_ratio': 0.32, 'universal_anisotropy': 0.25, 'elastic_tensor_original': [[190.2637639789535, 102.90679904496777, 107.80651533765388, 0.0, 0.0, 0.0], [102.83756669575965, 190.1684634971512, 107.73123570188237, 0.0, 0.0, 0.0], [105.22793887667378, 105.22793887667378, 179.1101871595147, 0.0, 0.0, 0.0], [-0.00037105009471738876, -0.0007387301885743753, 0.0005626368102908916, 62.970102894355016, 0.0, 0.0], [0.0026883306862500195, 0.00020187338486569526, -0.00046968345322880446, 0.0, 62.96931797748799, 0.0], [-0.00010142668583362969, -9.947335213238158e-05, -7.573001431194537e-05, 0.0, 0.0, 62.19202348348928]], 'compliance_tensor': [[9.8, -3.6, -3.6, 0.0, 0.0, -0.0], [-3.6, 8.7, -2.7, 0.0, 0.0, -0.0], [-3.6, -2.7, 8.7, 0.0, -0.0, 0.0], [0.0, 0.0, 0.0, 16.1, 0.0, 0.0], [0.0, 0.0, -0.0, 0.0, 15.9, -0.0], [-0.0, -0.0, 0.0, 0.0, -0.0, 15.9]], 'warnings': [], 'nsites': 10}",0,53,132,0.25,0.32,139.92
202,mp-22167,Zr6Ga2Co,"{'Zr': 6.0, 'Ga': 2.0, 'Co': 1.0}",0.119587604,6.867478773,"{'G_Reuss': 50.0, 'G_VRH': 50.0, 'G_Voigt': 50.0, 'G_Voigt_Reuss_Hill': 50.0, 'K_Reuss': 109.0, 'K_VRH': 109.0, 'K_Voigt': 109.0, 'K_Voigt_Reuss_Hill': 109.0, 'elastic_anisotropy': 0.0, 'elastic_tensor': [[179.0, 76.0, 76.0, 0.0, 0.0, 0.0], [76.0, 179.0, 76.0, 0.0, 0.0, 0.0], [76.0, 76.0, 172.0, 0.0, 0.0, 0.0], [0.0, 0.0, 0.0, 48.0, 0.0, 0.0], [0.0, 0.0, 0.0, 0.0, 48.0, 0.0], [0.0, 0.0, 0.0, 0.0, 0.0, 51.0]], 'homogeneous_poisson': 0.3, 'poisson_ratio': 0.3, 'universal_anisotropy': 0.0, 'elastic_tensor_original': [[180.2771417215255, 78.14462145195628, 77.5241400814904, 0.0, 0.0, 0.0], [74.82790885577629, 176.81993674489735, 74.42607531150145, 0.0, 0.0, 0.0], [75.58409797037818, 75.5841140098645, 172.15890678605845, 0.0, 0.0, 0.0], [-0.001018487177190963, -0.0010211605118637826, -0.0009595238143016665, 48.35412797118305, 0.0, 0.0], [-0.015504413230574174, -0.015573866563554296, -0.014692396867769282, 0.0, 48.332245962232996, 0.0], [0.0010210979003938642, 0.0009709811722099181, 0.0009331344605972869, 0.0, 0.0, 51.70990060926692]], 'compliance_tensor': [[7.5, -2.2, -2.3, -0.0, 0.0, 0.0], [-2.2, 7.5, -2.3, -0.0, 0.0, 0.0], [-2.3, -2.3, 7.9, 0.0, -0.0, -0.0], [-0.0, -0.0, 0.0, 20.7, 0.0, -0.0], [0.0, 0.0, -0.0, 0.0, 20.7, -0.0], [0.0, 0.0, -0.0, -0.0, -0.0, 19.5]], 'warnings': [], 'nsites': 9}",0,50,109,0,0.3,130
203,mp-22268,ZrPRu,"{'Zr': 1.0, 'P': 1.0, 'Ru': 1.0}",0.098186941,7.96382365,"{'G_Reuss': 107.0, 'G_VRH': 108.0, 'G_Voigt': 109.0, 'G_Voigt_Reuss_Hill': 108.0, 'K_Reuss': 207.0, 'K_VRH': 208.0, 'K_Voigt': 208.0, 'K_Voigt_Reuss_Hill': 208.0, 'elastic_anisotropy': 0.1, 'elastic_tensor': [[330.0, 127.0, 150.0, 0.0, 0.0, 0.0], [127.0, 358.0, 155.0, 0.0, 0.0, 0.0], [150.0, 155.0, 317.0, 0.0, 0.0, 0.0], [0.0, 0.0, 0.0, 121.0, 0.0, 0.0], [0.0, 0.0, 0.0, 0.0, 114.0, 0.0], [0.0, 0.0, 0.0, 0.0, 0.0, 117.0]], 'homogeneous_poisson': 0.28, 'poisson_ratio': 0.28, 'universal_anisotropy': 0.1, 'elastic_tensor_original': [[317.0538201474925, 150.051460575396, 155.25854961529402, 0.0, 0.0, 0.0], [150.1071668102049, 330.0750721537229, 126.84400396415423, 0.0, 0.0, 0.0], [154.85763755202146, 126.58853897221131, 358.03134873924023, 0.0, 0.0, 0.0], [-9.121313826740002e-05, -9.004977205619911e-05, -0.00012002317338876647, 117.1028174894226, 0.0, 0.0], [9.243398134377767e-06, 8.734619729425266e-07, -4.136451223944822e-06, 0.0, 120.72799559747128, 0.0], [-4.02234984167523e-05, -7.2468321401716156e-06, -5.724022168782801e-05, 0.0, 0.0, 114.18413057423066]], 'compliance_tensor': [[4.0, -0.8, -1.5, 0.0, -0.0, 0.0], [-0.8, 3.7, -1.4, 0.0, 0.0, 0.0], [-1.5, -1.4, 4.6, 0.0, 0.0, 0.0], [0.0, 0.0, 0.0, 8.3, 0.0, 0.0], [-0.0, 0.0, 0.0, 0.0, 8.8, 0.0], [0.0, 0.0, 0.0, 0.0, 0.0, 8.5]], 'warnings': [], 'nsites': 12}",0,108,208,0.1,0.28,276.48
204,mp-22302,ZrVP,"{'Zr': 1.0, 'V': 1.0, 'P': 1.0}",0.115171677,6.212497956,"{'G_Reuss': 103.0, 'G_VRH': 107.0, 'G_Voigt': 111.0, 'G_Voigt_Reuss_Hill': 107.0, 'K_Reuss': 177.0, 'K_VRH': 177.0, 'K_Voigt': 177.0, 'K_Voigt_Reuss_Hill': 177.0, 'elastic_anisotropy': 0.38, 'elastic_tensor': [[313.0, 85.0, 146.0, 0.0, 0.0, 0.0], [85.0, 319.0, 115.0, 0.0, 0.0, 0.0], [146.0, 115.0, 265.0, 0.0, 0.0, 0.0], [0.0, 0.0, 0.0, 130.0, 0.0, 0.0], [0.0, 0.0, 0.0, 0.0, 142.0, 0.0], [0.0, 0.0, 0.0, 0.0, 0.0, 98.0]], 'homogeneous_poisson': 0.25, 'poisson_ratio': 0.25, 'universal_anisotropy': 0.38, 'elastic_tensor_original': [[264.84478673209486, 147.19113623183378, 114.8293354807047, 0.0, 0.0, 0.0], [145.1789515023711, 313.453579926002, 85.97437775387712, 0.0, 0.0, 0.0], [115.7937794378132, 84.87614311145028, 319.08296313517826, 0.0, 0.0, 0.0], [9.136672482520035e-05, 4.883001497666523e-05, 0.00010228335799562985, 97.60769025253761, 0.0, 0.0], [-8.015657057288687e-05, -0.00012617984873554102, -5.076327247746972e-05, 0.0, 130.04202560586876, 0.0], [-0.00017439980969274422, -4.9666612469494204e-05, -4.821661405209386e-05, 0.0, 0.0, 142.3646557175661]], 'compliance_tensor': [[4.3, -0.4, -2.2, 0.0, -0.0, 0.0], [-0.4, 3.7, -1.4, 0.0, -0.0, 0.0], [-2.2, -1.4, 5.6, 0.0, 0.0, 0.0], [0.0, 0.0, 0.0, 7.7, 0.0, 0.0], [-0.0, -0.0, 0.0, 0.0, 7.0, 0.0], [0.0, 0.0, 0.0, 0.0, 0.0, 10.2]], 'warnings': [], 'nsites': 12}",0,107,177,0.38,0.25,267.5
205,mp-23052,ZrIN,"{'Zr': 1.0, 'I': 1.0, 'N': 1.0}",0.159289695,4.967871159,"{'G_Reuss': 3.0, 'G_VRH': 15.0, 'G_Voigt': 27.0, 'G_Voigt_Reuss_Hill': 15.0, 'K_Reuss': 3.0, 'K_VRH': 19.0, 'K_Voigt': 36.0, 'K_Voigt_Reuss_Hill': 19.0, 'elastic_anisotropy': 53.67, 'elastic_tensor': [[113.0, 0.0, 37.0, 0.0, 0.0, 0.0], [0.0, 3.0, 1.0, 0.0, 0.0, 0.0], [37.0, 1.0, 131.0, 0.0, 0.0, 0.0], [0.0, 0.0, 0.0, 1.0, 0.0, 0.0], [0.0, 0.0, 0.0, 0.0, 60.0, 0.0], [0.0, 0.0, 0.0, 0.0, 0.0, 3.0]], 'homogeneous_poisson': 0.19, 'poisson_ratio': 0.19, 'universal_anisotropy': 53.67, 'elastic_tensor_original': [[130.56166121832817, 36.911229176105444, 2.391732516195833, 0.0, 0.0, 0.0], [36.25046651492871, 113.29752550215903, -1.5997390919981693, 0.0, 0.0, 0.0], [-0.8107794014367484, 2.2694952557531685, 2.794437509104672, 0.0, 0.0, 0.0], [-0.0071519651539980016, 0.03659309815035235, 0.14051116597126098, 2.8642259209985435, 0.0, 0.0], [0.10107412398032391, 0.12127475120366027, 0.25643867798429837, 0.0, 1.1521761789912512, 0.0], [-8.328340603985499e-05, -2.1749956473164327e-05, -0.00015943305735342057, 0.0, 0.0, 59.91743374307674]], 'compliance_tensor': [[9.7, -0.4, -2.7, 0.0, 0.0, 0.0], [-0.4, 358.5, -2.1, 0.0, 0.0, 0.0], [-2.7, -2.1, 8.4, 0.0, 0.0, 0.0], [0.0, 0.0, 0.0, 867.9, 0.0, 0.0], [0.0, 0.0, 0.0, 0.0, 16.7, 0.0], [0.0, 0.0, 0.0, 0.0, 0.0, 349.1]], 'warnings': [], 'nsites': 6}",0,15,19,53.67,0.19,35.7
206,mp-29135,Zr6CoAs2,"{'Zr': 6.0, 'Co': 1.0, 'As': 2.0}",0.115038729,7.117220637,"{'G_Reuss': 67.0, 'G_VRH': 67.0, 'G_Voigt': 68.0, 'G_Voigt_Reuss_Hill': 67.0, 'K_Reuss': 124.0, 'K_VRH': 124.0, 'K_Voigt': 125.0, 'K_Voigt_Reuss_Hill': 124.0, 'elastic_anisotropy': 0.09, 'elastic_tensor': [[210.0, 81.0, 87.0, 0.0, 0.0, 0.0], [81.0, 210.0, 87.0, 0.0, 0.0, 0.0], [87.0, 87.0, 192.0, 0.0, 0.0, 0.0], [0.0, 0.0, 0.0, 78.0, 0.0, 0.0], [0.0, 0.0, 0.0, 0.0, 78.0, 0.0], [0.0, 0.0, 0.0, 0.0, 0.0, 64.0]], 'homogeneous_poisson': 0.27, 'poisson_ratio': 0.27, 'universal_anisotropy': 0.09, 'elastic_tensor_original': [[210.17258382022524, 80.89955481321586, 86.53691845476826, 0.0, 0.0, 0.0], [80.91817536648394, 211.00569804547615, 86.83444324846589, 0.0, 0.0, 0.0], [86.3248541656141, 86.32489602550712, 191.9307709761175, 0.0, 0.0, 0.0], [0.00045446357598440254, 0.000506323603673614, 0.0005454469578964103, 77.69997015622347, 0.0, 0.0], [0.002794901894606685, 0.003133695053540186, 0.0025594020158352703, 0.0, 77.61175641126772, 0.0], [-4.063372078357671e-06, 7.96665143975904e-06, 1.4099674262073148e-06, 0.0, 0.0, 63.881687518842696]], 'compliance_tensor': [[6.2, -1.5, -2.1, 0.0, -0.0, 0.0], [-1.5, 6.2, -2.1, -0.0, 0.0, 0.0], [-2.1, -2.1, 7.1, -0.0, -0.0, -0.0], [0.0, -0.0, -0.0, 12.9, 0.0, -0.0], [0.0, 0.0, -0.0, 0.0, 12.9, 0.0], [0.0, 0.0, -0.0, -0.0, 0.0, 15.5]], 'warnings': [], 'nsites': 9}",0,67,124,0.09,0.27,170.18
207,mp-30563,ZrCoSn,"{'Zr': 1.0, 'Co': 1.0, 'Sn': 1.0}",0.130380547,8.364350199,"{'G_Reuss': 63.0, 'G_VRH': 66.0, 'G_Voigt': 68.0, 'G_Voigt_Reuss_Hill': 66.0, 'K_Reuss': 138.0, 'K_VRH': 138.0, 'K_Voigt': 138.0, 'K_Voigt_Reuss_Hill': 138.0, 'elastic_anisotropy': 0.4, 'elastic_tensor': [[223.0, 96.0, 107.0, 0.0, 0.0, 0.0], [96.0, 223.0, 107.0, 0.0, 0.0, 0.0], [107.0, 107.0, 179.0, 0.0, 0.0, 0.0], [0.0, 0.0, 0.0, 86.0, 0.0, 0.0], [0.0, 0.0, 0.0, 0.0, 86.0, 0.0], [0.0, 0.0, 0.0, 0.0, 0.0, 64.0]], 'homogeneous_poisson': 0.29, 'poisson_ratio': 0.29, 'universal_anisotropy': 0.4, 'elastic_tensor_original': [[223.12768720534615, 96.6417059669526, 109.4544891139767, 0.0, 0.0, 0.0], [95.60298541776139, 222.17256633117492, 108.66642319285157, 0.0, 0.0, 0.0], [105.71551043860461, 105.71548229840087, 179.26040587471516, 0.0, 0.0, 0.0], [-3.29902669262353e-05, -0.00011466998251013725, 5.057338631570252e-05, 86.41513013985539, 0.0, 0.0], [-9.185354493274958e-05, -0.00016526018051015156, -0.00014565333020019817, 0.0, 86.45138194937026, 0.0], [0.00031229984197612, 0.0002670698630221226, 0.0002251532236205869, 0.0, 0.0, 64.45249130441952]], 'compliance_tensor': [[6.5, -1.3, -3.2, -0.0, 0.0, -0.0], [-1.3, 6.5, -3.2, -0.0, 0.0, -0.0], [-3.2, -3.2, 9.4, 0.0, -0.0, 0.0], [-0.0, -0.0, 0.0, 11.6, -0.0, 0.0], [0.0, 0.0, -0.0, -0.0, 11.6, -0.0], [-0.0, -0.0, 0.0, -0.0, -0.0, 15.7]], 'warnings': [], 'nsites': 9}",0,66,138,0.4,0.29,170.28