,mp_id,Formula,Composition,IPF,Density,Elastic_Tensor,E_above_Hull,G_VRH,K_VRH,Elastic_Anisotropy,poisson_ratio,Y_Modulus
130,mp-567807,TmZrSb,"{'Tm': 1.0, 'Zr': 1.0, 'Sb': 1.0}",0.141688793,8.510051747,"{'G_Reuss': 33.0, 'G_VRH': 35.0, 'G_Voigt': 38.0, 'G_Voigt_Reuss_Hill': 35.0, 'K_Reuss': 77.0, 'K_VRH': 78.0, 'K_Voigt': 78.0, 'K_Voigt_Reuss_Hill': 78.0, 'elastic_anisotropy': 0.78, 'elastic_tensor': [[103.0, 67.0, 51.0, 0.0, 0.0, 0.0], [67.0, 103.0, 51.0, 0.0, 0.0, 0.0], [51.0, 51.0, 162.0, 0.0, 0.0, 0.0], [0.0, 0.0, 0.0, 36.0, 0.0, 0.0], [0.0, 0.0, 0.0, 0.0, 36.0, 0.0], [0.0, 0.0, 0.0, 0.0, 0.0, 50.0]], 'homogeneous_poisson': 0.3, 'poisson_ratio': 0.3, 'universal_anisotropy': 0.78, 'elastic_tensor_original': [[102.51905073479232, 67.0441672608016, 51.78464499681241, -1.8799703906468165e-05, 3.3399473961491314e-05, 0.0], [67.04416726089796, 102.51905073493586, 51.784644996882825, -2.103930001688637e-05, 2.510093427959356e-05, 0.0], [50.54392860931823, 50.54392860931823, 162.44384265068035, -2.159979547571534e-05, 4.139960799512107e-05, 0.0], [0.0, -4.390152597455796e-08, -1.6918698891507695e-05, 36.07916341541969, 5.000017536178711e-08, 4.412115251986162e-06], [8.824230658182767e-06, 0.0, 1.691869888742965e-05, -5.409324844737986e-08, 36.0791634154197, -2.1950830353496288e-08], [0.5011889147029245, -0.5011889147024274, 0.0, 1.1922633468117637e-05, -1.1712569177622508e-05, 50.11642686773603]], 'compliance_tensor': [[17.7, -10.5, -2.3, 0.0, -0.0, 0.0], [-10.5, 17.7, -2.3, -0.0, 0.0, -0.0], [-2.3, -2.3, 7.6, -0.0, -0.0, 0.0], [0.0, -0.0, -0.0, 27.7, 0.0, -0.0], [-0.0, 0.0, -0.0, 0.0, 27.7, -0.0], [0.0, -0.0, 0.0, -0.0, -0.0, 20.0]], 'warnings': ['Contains a rare earth element'], 'nsites': 6}",0,35,78,0.78,0.3,91
131,mp-623134,ZrInCu2,"{'Zr': 1.0, 'In': 1.0, 'Cu': 2.0}",0.162779044,8.366624371,"{'G_Reuss': 47.0, 'G_VRH': 51.0, 'G_Voigt': 55.0, 'G_Voigt_Reuss_Hill': 51.0, 'K_Reuss': 117.0, 'K_VRH': 117.0, 'K_Voigt': 117.0, 'K_Voigt_Reuss_Hill': 117.0, 'elastic_anisotropy': 0.9, 'elastic_tensor': [[158.0, 96.0, 96.0, 0.0, 0.0, 0.0], [96.0, 158.0, 96.0, 0.0, 0.0, 0.0], [96.0, 96.0, 158.0, 0.0, 0.0, 0.0], [0.0, 0.0, 0.0, 71.0, 0.0, 0.0], [0.0, 0.0, 0.0, 0.0, 71.0, 0.0], [0.0, 0.0, 0.0, 0.0, 0.0, 71.0]], 'homogeneous_poisson': 0.31, 'poisson_ratio': 0.31, 'universal_anisotropy': 0.9, 'elastic_tensor_original': [[153.52681622934605, 99.22677108616134, 99.22658406184604, 0.00013381220842621994, -0.0003489864099290956, 3.9498059724251315e-05], [93.64130249970661, 161.10331378923956, 93.64130249970661, 0.0, 0.0, 0.0], [96.14271760921471, 96.14271760921471, 158.87698973147164, 0.0, 0.0, 0.0], [0.0006565955113139279, 0.000796275518614481, 0.0007641488633705134, 71.41282761026827, 0.0, 0.0], [0.00039132605489147266, 0.00046485604848826194, 0.0004098860652660459, 0.0, 71.41249737372709, 0.0], [-0.00042102848825788675, -0.000533668388627412, -0.0007942249146614943, 0.0, 0.0, 71.41281371065894]], 'compliance_tensor': [[11.8, -4.5, -4.5, -0.0, 0.0, 0.0], [-4.5, 11.8, -4.5, -0.0, -0.0, 0.0], [-4.5, -4.5, 11.8, 0.0, 0.0, -0.0], [-0.0, -0.0, 0.0, 14.0, 0.0, -0.0], [0.0, -0.0, 0.0, 0.0, 14.0, -0.0], [0.0, 0.0, -0.0, -0.0, -0.0, 14.0]], 'warnings': [], 'nsites': 4}",0,51,117,0.9,0.31,133.62
132,mp-637771,ZrInNi4,"{'Zr': 1.0, 'In': 1.0, 'Ni': 4.0}",0.159583051,9.032171409,"{'G_Reuss': 63.0, 'G_VRH': 65.0, 'G_Voigt': 67.0, 'G_Voigt_Reuss_Hill': 65.0, 'K_Reuss': 161.0, 'K_VRH': 161.0, 'K_Voigt': 161.0, 'K_Voigt_Reuss_Hill': 161.0, 'elastic_anisotropy': 0.3, 'elastic_tensor': [[225.0, 129.0, 129.0, 0.0, 0.0, 0.0], [129.0, 225.0, 129.0, 0.0, 0.0, 0.0], [129.0, 129.0, 225.0, 0.0, 0.0, 0.0], [0.0, 0.0, 0.0, 79.0, 0.0, 0.0], [0.0, 0.0, 0.0, 0.0, 79.0, 0.0], [0.0, 0.0, 0.0, 0.0, 0.0, 79.0]], 'homogeneous_poisson': 0.32, 'poisson_ratio': 0.32, 'universal_anisotropy': 0.3, 'elastic_tensor_original': [[224.89204562004343, 128.35058850253185, 128.35058850253185, 0.0, 0.0, 0.0], [128.43327338130976, 225.00621538998416, 128.43327338130976, 0.0, 0.0, 0.0], [129.3020616622244, 129.3020616622244, 225.29433882196278, 0.0, 0.0, 0.0], [-0.016183018057698367, -0.014105444973715056, -0.01714231794256179, 79.19328701848022, 0.0, 0.0], [0.027234050064678064, 0.02898508318784985, 0.04271169487370286, 0.0, 79.19110008207603, 0.0], [0.001994839760579031, 0.002014293091576814, 0.0019832464286358748, 0.0, 0.0, 79.18739431585414]], 'compliance_tensor': [[7.6, -2.8, -2.8, -0.0, 0.0, 0.0], [-2.8, 7.6, -2.8, -0.0, -0.0, 0.0], [-2.8, -2.8, 7.6, 0.0, -0.0, -0.0], [-0.0, -0.0, 0.0, 12.6, -0.0, -0.0], [0.0, -0.0, -0.0, -0.0, 12.6, 0.0], [0.0, 0.0, -0.0, -0.0, 0.0, 12.6]], 'warnings': [], 'nsites': 6}",0,65,161,0.3,0.32,171.6
133,mp-638729,Cs2ZrCl6,"{'Cs': 2.0, 'Zr': 1.0, 'Cl': 6.0}",0.204095561,3.004516191,"{'G_Reuss': 4.0, 'G_VRH': 4.0, 'G_Voigt': 4.0, 'G_Voigt_Reuss_Hill': 4.0, 'K_Reuss': 9.0, 'K_VRH': 9.0, 'K_Voigt': 9.0, 'K_Voigt_Reuss_Hill': 9.0, 'elastic_anisotropy': 0.23, 'elastic_tensor': [[13.0, 7.0, 7.0, 0.0, 0.0, 0.0], [7.0, 13.0, 7.0, 0.0, 0.0, 0.0], [7.0, 7.0, 13.0, 0.0, 0.0, 0.0], [0.0, 0.0, 0.0, 4.0, 0.0, 0.0], [0.0, 0.0, 0.0, 0.0, 4.0, 0.0], [0.0, 0.0, 0.0, 0.0, 0.0, 4.0]], 'homogeneous_poisson': 0.31, 'poisson_ratio': 0.31, 'universal_anisotropy': 0.23, 'elastic_tensor_original': [[12.53179704766664, 6.718077494931414, 6.718077494931414, 0.0, 0.0, 0.0], [6.718548633207879, 12.530217905253421, 6.718548633207879, 0.0, 0.0, 0.0], [6.720044703183425, 6.720044703183425, 12.522218743349017, 0.0, 0.0, 0.0], [-0.0002196524801737572, 0.003188743878844511, -0.0035461013465886383, 4.494459516821447, 0.0, 0.0], [0.10719034365812706, 1.702066513035275e-05, -0.10723412965417467, 0.0, 4.494305437002022, 0.0], [0.003166938047479636, -0.0038161821555439844, -0.0002889391405864727, 0.0, 0.0, 4.494439064323293]], 'compliance_tensor': [[127.6, -44.5, -44.5, 0.0, -0.0, 0.0], [-44.5, 127.6, -44.5, 0.0, 0.0, -0.0], [-44.5, -44.5, 127.6, -0.0, 0.0, 0.0], [0.0, 0.0, -0.0, 222.5, -0.0, -0.0], [-0.0, 0.0, 0.0, -0.0, 222.5, -0.0], [0.0, -0.0, 0.0, -0.0, -0.0, 222.5]], 'warnings': [], 'nsites': 9}",0,4,9,0.23,0.31,10.48
134,mp-7219,Na2ZrSe3,"{'Na': 2.0, 'Zr': 1.0, 'Se': 3.0}",0.19490014,4.201333807,"{'G_Reuss': 21.0, 'G_VRH': 22.0, 'G_Voigt': 22.0, 'G_Voigt_Reuss_Hill': 22.0, 'K_Reuss': 34.0, 'K_VRH': 35.0, 'K_Voigt': 35.0, 'K_Voigt_Reuss_Hill': 35.0, 'elastic_anisotropy': 0.26, 'elastic_tensor': [[56.0, 19.0, 18.0, 0.0, -1.0, 0.0], [19.0, 72.0, 22.0, 0.0, -5.0, 0.0], [18.0, 22.0, 72.0, 0.0, 2.0, 0.0], [0.0, 0.0, 0.0, 25.0, 0.0, -5.0], [-1.0, -5.0, 2.0, 0.0, 19.0, 0.0], [0.0, 0.0, 0.0, -5.0, 0.0, 19.0]], 'homogeneous_poisson': 0.24, 'poisson_ratio': 0.24, 'universal_anisotropy': 0.26, 'elastic_tensor_original': [[72.09671866976451, 21.50987649506249, 18.812049633858397, -5.203305232342, 0.0, 0.0], [22.07375398053242, 71.51224432931585, 18.49612034012008, 1.493831695949249, 0.0, 0.0], [18.329275571974943, 17.0133110617527, 56.41766537736737, -1.3582647508255654, 0.0, 0.0], [-4.594538664925728, 2.7357362718462306, -0.9549599031169441, 18.937688650557227, 0.0, 0.0], [0.011498040635669374, 0.01253608433774217, 0.02359572821108118, 0.019240026697442993, 19.3586977672614, -4.59386328703154], [-0.025551501991397874, 0.006851281364553587, -0.00801078330854056, 0.008388949750359354, -4.4766305424543384, 24.95934057022611]], 'compliance_tensor': [[20.3, -4.0, -3.8, 0.0, 0.6, 0.0], [-4.0, 16.5, -4.2, 0.0, 4.5, 0.0], [-3.8, -4.2, 16.3, 0.0, -3.1, 0.0], [0.0, 0.0, 0.0, 41.8, 0.0, 9.8], [0.6, 4.5, -3.1, 0.0, 54.4, 0.0], [0.0, 0.0, 0.0, 9.8, 0.0, 54.0]], 'warnings': [], 'nsites': 12}",0,22,35,0.26,0.24,54.56
135,mp-755225,Li8ZrO6,"{'Li': 8.0, 'Zr': 1.0, 'O': 6.0}",0.558518273,2.909913051,"{'G_Reuss': 61.0, 'G_VRH': 64.0, 'G_Voigt': 67.0, 'G_Voigt_Reuss_Hill': 64.0, 'K_Reuss': 94.0, 'K_VRH': 94.0, 'K_Voigt': 94.0, 'K_Voigt_Reuss_Hill': 94.0, 'elastic_anisotropy': 0.52, 'elastic_tensor': [[174.0, 54.0, 52.0, 3.0, 22.0, 0.0], [54.0, 174.0, 52.0, -3.0, -22.0, 0.0], [52.0, 52.0, 185.0, 0.0, 0.0, 0.0], [3.0, -3.0, 0.0, 76.0, 0.0, -22.0], [22.0, -22.0, 0.0, 0.0, 76.0, 3.0], [0.0, 0.0, 0.0, -22.0, 3.0, 60.0]], 'homogeneous_poisson': 0.22, 'poisson_ratio': 0.22, 'universal_anisotropy': 0.52, 'elastic_tensor_original': [[173.63606019025303, 54.18625592366988, 52.35749192112593, -2.628888697650029, -21.927646082273032, -0.16488969430778774], [53.94771057419144, 173.46842796058613, 52.17790411450831, 2.727202722995428, 21.76780001049079, 0.09723883953492472], [52.45266985211914, 52.45269412987662, 184.62607167887933, 0.0, 0.0, 3.6019792550786915e-07], [-2.7366728598166383, 2.2091824034634238, -0.4047338779930333, 75.53282393253065, -0.027766643803340638, 21.404970919588767], [-21.18367720860418, 21.607056351505857, 0.36391926684217657, 0.014212200756943237, 75.54521296091147, -2.43361014059698], [0.12516646270271592, 0.07194377309846968, -0.1436360217087896, 21.383834500544673, -2.438706295382148, 59.97007733772679]], 'compliance_tensor': [[7.2, -2.1, -1.4, -0.3, -2.7, -0.0], [-2.1, 7.2, -1.4, 0.3, 2.7, -0.0], [-1.4, -1.4, 6.2, -0.0, -0.0, 0.0], [-0.3, 0.3, 0.0, 14.8, -0.0, 5.3], [-2.7, 2.7, 0.0, -0.0, 14.8, -0.6], [-0.0, -0.0, 0.0, 5.3, -0.6, 18.6]], 'warnings': [], 'nsites': 15}",0.676225667,64,94,0.52,0.22,156.16
136,mp-755895,Ba3Zr2O7,"{'Ba': 3.0, 'Zr': 2.0, 'O': 7.0}",0.527304976,5.860194499,"{'G_Reuss': 65.0, 'G_VRH': 66.0, 'G_Voigt': 67.0, 'G_Voigt_Reuss_Hill': 66.0, 'K_Reuss': 119.0, 'K_VRH': 119.0, 'K_Voigt': 119.0, 'K_Voigt_Reuss_Hill': 119.0, 'elastic_anisotropy': 0.21, 'elastic_tensor': [[238.0, 60.0, 67.0, 0.0, 0.0, 0.0], [60.0, 238.0, 67.0, 0.0, 0.0, 0.0], [67.0, 67.0, 208.0, 0.0, 0.0, 0.0], [0.0, 0.0, 0.0, 53.0, 0.0, 0.0], [0.0, 0.0, 0.0, 0.0, 53.0, 0.0], [0.0, 0.0, 0.0, 0.0, 0.0, 67.0]], 'homogeneous_poisson': 0.27, 'poisson_ratio': 0.27, 'universal_anisotropy': 0.21, 'elastic_tensor_original': [[237.81720886829024, 59.8288350337836, 66.91566190165693, 0.0, 0.0, 0.0], [59.828593423593446, 237.81693943994676, 66.91523397677818, 0.0, 0.0, 0.0], [66.90779817135451, 66.90779817135451, 207.67301633489438, 0.0, 0.0, 0.0], [0.026494947232937622, 0.01884597395780904, 0.058270643966234104, 53.02455088991036, 0.0, 0.0], [-0.0003766341710190587, -5.206125006998377e-05, -0.002157063925568101, 0.0, 53.019883297916216, 0.0], [4.931014738782964e-05, 4.037677788527334e-05, -2.6865533853098853e-06, 0.0, 0.0, 67.2325148579697]], 'compliance_tensor': [[4.8, -0.8, -1.3, -0.0, 0.0, -0.0], [-0.8, 4.8, -1.3, -0.0, -0.0, 0.0], [-1.3, -1.3, 5.6, 0.0, -0.0, -0.0], [-0.0, -0.0, 0.0, 18.9, -0.0, -0.0], [0.0, -0.0, -0.0, -0.0, 18.9, -0.0], [-0.0, 0.0, -0.0, -0.0, -0.0, 14.9]], 'warnings': [], 'nsites': 12}",0,66,119,0.21,0.27,167.64
137,mp-7707,Zr(SiNi)2,"{'Zr': 1.0, 'Si': 2.0, 'Ni': 2.0}",0.106909749,6.37088899,"{'G_Reuss': 80.0, 'G_VRH': 82.0, 'G_Voigt': 83.0, 'G_Voigt_Reuss_Hill': 82.0, 'K_Reuss': 170.0, 'K_VRH': 171.0, 'K_Voigt': 172.0, 'K_Voigt_Reuss_Hill': 171.0, 'elastic_anisotropy': 0.16, 'elastic_tensor': [[260.0, 101.0, 137.0, 0.0, 0.0, 0.0], [101.0, 260.0, 137.0, 0.0, 0.0, 0.0], [137.0, 137.0, 274.0, 0.0, 0.0, 0.0], [0.0, 0.0, 0.0, 94.0, 0.0, 0.0], [0.0, 0.0, 0.0, 0.0, 94.0, 0.0], [0.0, 0.0, 0.0, 0.0, 0.0, 88.0]], 'homogeneous_poisson': 0.29, 'poisson_ratio': 0.29, 'universal_anisotropy': 0.16, 'elastic_tensor_original': [[260.175618387903, 100.73942286335858, 136.1505213463765, 0.0, 0.0, 0.0], [100.73859999603435, 260.1767866034028, 136.1502262280864, 0.0, 0.0, 0.0], [138.10123439062738, 138.10123439062738, 273.8385912269247, 0.0, 0.0, 0.0], [-0.0058275686980617004, -0.005222270923517458, -0.004801789771505254, 93.56485856467323, 0.0, 0.0], [0.0032659180250117006, 0.0035623627633388933, 0.0033037780126198455, 0.0, 93.56501765858671, 0.0], [-0.0012937698506006554, -0.001325989851271852, -0.0013519298427951815, 0.0, 0.0, 87.85381705519895]], 'compliance_tensor': [[5.4, -0.9, -2.2, 0.0, 0.0, 0.0], [-0.9, 5.4, -2.2, 0.0, 0.0, 0.0], [-2.2, -2.2, 5.9, -0.0, 0.0, 0.0], [0.0, 0.0, -0.0, 10.7, 0.0, 0.0], [0.0, 0.0, 0.0, 0.0, 10.7, 0.0], [0.0, 0.0, 0.0, 0.0, 0.0, 11.4]], 'warnings': [], 'nsites': 5}",0,82,171,0.16,0.29,211.56
138,mp-8042,ZrGeO4,"{'Zr': 1.0, 'Ge': 1.0, 'O': 4.0}",0.585039989,5.811092455,"{'G_Reuss': 82.0, 'G_VRH': 85.0, 'G_Voigt': 87.0, 'G_Voigt_Reuss_Hill': 85.0, 'K_Reuss': 199.0, 'K_VRH': 202.0, 'K_Voigt': 205.0, 'K_Voigt_Reuss_Hill': 202.0, 'elastic_anisotropy': 0.35, 'elastic_tensor': [[375.0, 157.0, 124.0, 0.0, 0.0, 22.0], [157.0, 375.0, 124.0, 0.0, 0.0, -22.0], [124.0, 124.0, 282.0, 0.0, 0.0, 0.0], [0.0, 0.0, 0.0, 67.0, 0.0, 0.0], [0.0, 0.0, 0.0, 0.0, 67.0, 0.0], [22.0, -22.0, 0.0, 0.0, 0.0, 93.0]], 'homogeneous_poisson': 0.32, 'poisson_ratio': 0.32, 'universal_anisotropy': 0.35, 'elastic_tensor_original': [[375.0499629656782, 156.94587394705547, 123.90465406475248, 0.0, 0.0, 20.501232030531753], [156.9451192826176, 375.0495689100623, 123.90409268659366, 0.0, 0.0, -20.500146246745263], [123.43935560511748, 123.43935560511748, 282.4467747067894, 0.0, 0.0, -4.788952345326667e-07], [0.0002680505935736754, 0.00035355428914320586, 0.0013302977201701896, 67.29761451604976, 0.6205403977512451, -6.583801742865032e-05], [-0.00017513716209173442, -0.00026049337747676836, -0.001197950590802893, -0.620679037335941, 67.29777843222439, 0.00021349728115158237], [22.62918436916544, -23.29868616139914, -0.4836476652708381, 0.0, 0.0, 92.59334801969939]], 'compliance_tensor': [[3.6, -1.2, -1.0, 0.0, -0.0, -1.1], [-1.2, 3.6, -1.0, -0.0, 0.0, 1.1], [-1.0, -1.0, 4.4, 0.0, 0.0, -0.0], [0.0, -0.0, 0.0, 14.9, 0.0, -0.0], [-0.0, 0.0, 0.0, 0.0, 14.9, -0.0], [-1.1, 1.1, -0.0, -0.0, -0.0, 11.3]], 'warnings': [], 'nsites': 12}",0,85,202,0.35,0.32,224.4
139,mp-8219,Zr(CuP)2,"{'Zr': 1.0, 'Cu': 2.0, 'P': 2.0}",0.111286376,5.968639054,"{'G_Reuss': 58.0, 'G_VRH': 61.0, 'G_Voigt': 64.0, 'G_Voigt_Reuss_Hill': 61.0, 'K_Reuss': 129.0, 'K_VRH': 129.0, 'K_Voigt': 129.0, 'K_Voigt_Reuss_Hill': 129.0, 'elastic_anisotropy': 0.54, 'elastic_tensor': [[231.0, 80.0, 79.0, -16.0, 0.0, 0.0], [80.0, 231.0, 79.0, 16.0, 0.0, 0.0], [79.0, 79.0, 220.0, 0.0, 0.0, 0.0], [-16.0, 16.0, 0.0, 48.0, 0.0, 0.0], [0.0, 0.0, 0.0, 0.0, 48.0, -16.0], [0.0, 0.0, 0.0, 0.0, -16.0, 76.0]], 'homogeneous_poisson': 0.3, 'poisson_ratio': 0.3, 'universal_anisotropy': 0.54, 'elastic_tensor_original': [[230.27235814524295, 80.85835520428603, 76.45453323473137, 20.953644135275724, 0.0, 0.0], [79.67981749379747, 232.4532703479056, 79.58990014368892, -18.979134417956978, 0.0, 0.0], [79.60873770282255, 79.60880107495232, 219.58217465418073, 0.0, 0.0, 0.0], [15.02821711168733, -12.231288995295776, 2.3974568457566896, 47.97609227056216, 0.0, 0.0], [0.0009385602945299957, 0.0013238093623786802, 0.0009639100871879942, -0.00032828710305706437, 48.94844079110531, 13.93420486377716], [-0.5849687778683048, -0.45887563321191444, -0.5637596444125713, 0.40586932238231205, 15.075870820014073, 75.5728383032366]], 'compliance_tensor': [[5.5, -1.6, -1.4, 2.3, -0.0, 0.0], [-1.6, 5.5, -1.4, -2.3, 0.0, 0.0], [-1.4, -1.4, 5.6, -0.0, -0.0, -0.0], [2.3, -2.3, 0.0, 22.1, 0.0, 0.0], [-0.0, 0.0, -0.0, 0.0, 22.1, 4.6], [0.0, 0.0, -0.0, 0.0, 4.6, 14.2]], 'warnings': [], 'nsites': 5}",0,61,129,0.54,0.3,158.6
140,mp-8418,ZrCoP,"{'Zr': 1.0, 'Co': 1.0, 'P': 1.0}",0.12478837,7.13404086,"{'G_Reuss': 114.0, 'G_VRH': 115.0, 'G_Voigt': 116.0, 'G_Voigt_Reuss_Hill': 115.0, 'K_Reuss': 192.0, 'K_VRH': 193.0, 'K_Voigt': 193.0, 'K_Voigt_Reuss_Hill': 193.0, 'elastic_anisotropy': 0.11, 'elastic_tensor': [[338.0, 114.0, 131.0, 0.0, 0.0, 0.0], [114.0, 309.0, 135.0, 0.0, 0.0, 0.0], [131.0, 135.0, 329.0, 0.0, 0.0, 0.0], [0.0, 0.0, 0.0, 131.0, 0.0, 0.0], [0.0, 0.0, 0.0, 0.0, 137.0, 0.0], [0.0, 0.0, 0.0, 0.0, 0.0, 115.0]], 'homogeneous_poisson': 0.25, 'poisson_ratio': 0.25, 'universal_anisotropy': 0.11, 'elastic_tensor_original': [[329.0093675237936, 129.04855761093526, 135.39813291639834, 0.0, 0.0, 0.0], [132.84228452344595, 338.38425810094225, 116.74730042202894, 0.0, 0.0, 0.0], [134.2613633417136, 111.21735045128092, 308.9836167844256, 0.0, 0.0, 0.0], [0.00022263056766074613, 0.00022949058699411347, 0.0002412739131161864, 114.64472722915256, 0.0, 0.0], [-0.0001474500102701449, -0.0001842166793006837, -0.0002135700563425165, 0.0, 130.64289287239967, 0.0], [-0.31636151730588474, -0.330012477970073, -0.32638403111710146, 0.0, 0.0, 136.64962175796458]], 'compliance_tensor': [[3.7, -0.9, -1.1, 0.0, 0.0, 0.0], [-0.9, 4.1, -1.4, 0.0, 0.0, 0.0], [-1.1, -1.4, 4.0, 0.0, -0.0, 0.0], [0.0, 0.0, 0.0, 7.7, 0.0, 0.0], [0.0, 0.0, -0.0, 0.0, 7.3, 0.0], [0.0, 0.0, 0.0, 0.0, 0.0, 8.7]], 'warnings': [], 'nsites': 12}",0,115,193,0.11,0.25,287.5
141,mp-864897,Zr2CuOs,"{'Zr': 2.0, 'Cu': 1.0, 'Os': 1.0}",0.125622439,10.20714223,"{'G_Reuss': 42.0, 'G_VRH': 46.0, 'G_Voigt': 50.0, 'G_Voigt_Reuss_Hill': 46.0, 'K_Reuss': 165.0, 'K_VRH': 165.0, 'K_Voigt': 165.0, 'K_Voigt_Reuss_Hill': 165.0, 'elastic_anisotropy': 0.97, 'elastic_tensor': [[201.0, 147.0, 147.0, 0.0, 0.0, 0.0], [147.0, 201.0, 147.0, 0.0, 0.0, 0.0], [147.0, 147.0, 201.0, 0.0, 0.0, 0.0], [0.0, 0.0, 0.0, 65.0, 0.0, 0.0], [0.0, 0.0, 0.0, 0.0, 65.0, 0.0], [0.0, 0.0, 0.0, 0.0, 0.0, 65.0]], 'homogeneous_poisson': 0.37, 'poisson_ratio': 0.37, 'universal_anisotropy': 0.97, 'elastic_tensor_original': [[202.50335489526276, 146.8685662984979, 146.8685662984979, 0.0, 0.0, 0.0], [145.93315634997086, 198.13155359567475, 145.93315634997086, 0.0, 0.0, 0.0], [146.9258009459002, 146.9258009459002, 202.55975142132675, 0.0, 0.0, 0.0], [0.09607452228033615, 0.095768318621021, 0.09757166054084655, 65.2337900474849, 0.0, 0.0], [0.0025146260103885583, 0.0024582892837466076, 0.002415632571667538, 0.0, 65.25279069437953, 0.0], [0.0012776413601714354, 0.0012828746990741233, 0.0013510481049851051, 0.0, 0.0, 65.25291958118342]], 'compliance_tensor': [[12.9, -5.4, -5.4, 0.0, 0.0, -0.0], [-5.4, 12.9, -5.4, -0.0, 0.0, 0.0], [-5.4, -5.4, 12.9, 0.0, -0.0, 0.0], [0.0, -0.0, 0.0, 15.3, -0.0, -0.0], [0.0, 0.0, -0.0, -0.0, 15.3, -0.0], [-0.0, 0.0, 0.0, -0.0, -0.0, 15.3]], 'warnings': [], 'nsites': 4}",0,46,165,0.97,0.37,126.04
142,mp-864947,ZrSnRh2,"{'Zr': 1.0, 'Sn': 1.0, 'Rh': 2.0}",0.121329946,9.827144323,"{'G_Reuss': -249.0, 'G_VRH': -112.0, 'G_Voigt': 24.0, 'G_Voigt_Reuss_Hill': -112.0, 'K_Reuss': 172.0, 'K_VRH': 172.0, 'K_Voigt': 172.0, 'K_Voigt_Reuss_Hill': 172.0, 'elastic_anisotropy': -5.48, 'elastic_tensor': [[134.0, 190.0, 190.0, 0.0, 0.0, 0.0], [190.0, 134.0, 190.0, 0.0, 0.0, 0.0], [190.0, 190.0, 134.0, 0.0, 0.0, 0.0], [0.0, 0.0, 0.0, 58.0, 0.0, 0.0], [0.0, 0.0, 0.0, 0.0, 58.0, 0.0], [0.0, 0.0, 0.0, 0.0, 0.0, 58.0]], 'homogeneous_poisson': 0.92, 'poisson_ratio': 0.92, 'universal_anisotropy': -5.48, 'elastic_tensor_original': [[134.302014528481, 190.3045835635154, 190.3045835635154, 0.0, 0.0, 0.0], [190.30361218268553, 134.3017353060944, 190.30361218268553, 0.0, 0.0, 0.0], [190.29548098269683, 190.29548098269683, 134.29226798097739, 0.0, 0.0, 0.0], [-0.00016739677284306287, 2.7020017140962846e-05, -9.783339538499507e-06, 58.45983028400589, 0.0, 0.0], [-2.2640014360289223e-05, 0.00019099678781515537, 2.3680015020247924e-05, 0.0, 58.45974028728213, 0.0], [2.7290017310618814e-05, -1.5423343115874672e-05, -0.00020865679901619732, 0.0, 0.0, 58.459853907354194]], 'compliance_tensor': [[-11.3, 6.6, 6.6, 0.0, 0.0, -0.0], [6.6, -11.3, 6.6, -0.0, 0.0, 0.0], [6.6, 6.6, -11.3, 0.0, -0.0, 0.0], [0.0, -0.0, 0.0, 17.1, 0.0, 0.0], [0.0, 0.0, -0.0, 0.0, 17.1, 0.0], [-0.0, 0.0, 0.0, 0.0, 0.0, 17.1]], 'warnings': ['Elastic tensor has a negative eigenvalue', 'c11 and c12 are within 5% or c12 is greater than c11', 'c11 and c13 are within 5% or c13 is greater than c11', 'c11 and c23 are within 5% or c23 is greater than c11', 'One or more K, G below 2 GPa'], 'nsites': 4}",0,-112,172,-5.48,0.92,-430.08