,mp_id,Formula,Composition,IPF,Density,Elastic_Tensor,E_above_Hull,G_VRH,K_VRH,Elastic_Anisotropy,poisson_ratio,Y_Modulus
169,mp-4156,Li2ZrO3,"{'Li': 2.0, 'Zr': 1.0, 'O': 3.0}",0.537793501,4.032147501,"{'G_Reuss': 51.0, 'G_VRH': 59.0, 'G_Voigt': 66.0, 'G_Voigt_Reuss_Hill': 59.0, 'K_Reuss': 86.0, 'K_VRH': 101.0, 'K_Voigt': 115.0, 'K_Voigt_Reuss_Hill': 101.0, 'elastic_anisotropy': 1.81, 'elastic_tensor': [[289.0, 83.0, 48.0, 0.0, -16.0, 0.0], [83.0, 240.0, 57.0, 0.0, 6.0, 0.0], [48.0, 57.0, 135.0, 0.0, -42.0, 0.0], [0.0, 0.0, 0.0, 59.0, 0.0, 19.0], [-16.0, 6.0, -42.0, 0.0, 55.0, 0.0], [0.0, 0.0, 0.0, 19.0, 0.0, 60.0]], 'homogeneous_poisson': 0.26, 'poisson_ratio': 0.26, 'universal_anisotropy': 1.81, 'elastic_tensor_original': [[240.4157055397527, 56.612411360752, 82.66682624060844, 6.020161691649451, 0.0, 0.0], [57.78379414073748, 134.69559914541432, 47.35578616460717, -41.163330621875765, 0.0, 0.0], [82.6360908317933, 48.26849343736717, 289.050027047584, -16.001045812798107, 0.0, 0.0], [6.503797404691257, -42.25538788328449, -15.020099503514976, 54.76066238455518, 0.0, 0.0], [-0.0007065296882345656, -0.0009647129076419071, -0.0015929326304330207, -0.0010688295283657824, 59.62124557471746, 17.231834466238798], [-0.00877792810220106, -0.009185484525987253, -0.006935305866962042, 0.005079290306372893, 21.084988317911236, 59.134209339463474]], 'compliance_tensor': [[4.0, -1.2, -0.6, 0.0, 0.8, 0.0], [-1.2, 5.3, -2.8, 0.0, -3.1, 0.0], [-0.6, -2.8, 11.6, 0.0, 9.0, 0.0], [0.0, 0.0, 0.0, 18.9, 0.0, -6.1], [0.8, -3.1, 9.0, 0.0, 25.7, 0.0], [0.0, 0.0, 0.0, -6.1, 0.0, 18.7]], 'warnings': [], 'nsites': 12}",0,59,101,1.81,0.26,148.68
170,mp-5137,Zr2SbP,"{'Zr': 2.0, 'Sb': 1.0, 'P': 1.0}",0.098192865,6.490311425,"{'G_Reuss': 61.0, 'G_VRH': 66.0, 'G_Voigt': 72.0, 'G_Voigt_Reuss_Hill': 66.0, 'K_Reuss': 113.0, 'K_VRH': 113.0, 'K_Voigt': 114.0, 'K_Voigt_Reuss_Hill': 113.0, 'elastic_anisotropy': 0.84, 'elastic_tensor': [[171.0, 71.0, 88.0, 0.0, 0.0, 0.0], [71.0, 171.0, 88.0, 0.0, 0.0, 0.0], [88.0, 88.0, 189.0, 0.0, 0.0, 0.0], [0.0, 0.0, 0.0, 107.0, 0.0, 0.0], [0.0, 0.0, 0.0, 0.0, 107.0, 0.0], [0.0, 0.0, 0.0, 0.0, 0.0, 50.0]], 'homogeneous_poisson': 0.25, 'poisson_ratio': 0.25, 'universal_anisotropy': 0.84, 'elastic_tensor_original': [[169.71517320101006, 72.21555757828509, 87.98747396660906, 0.0, 0.0, 0.0], [71.57227792648442, 170.4363754008543, 87.96319197718988, 0.0, 0.0, 0.0], [87.40112017860592, 87.40106511937137, 188.94286721442333, 0.0, 0.0, 0.0], [-9.420310033852154e-05, 0.00010317974480465476, -3.3166584630496494e-06, 106.76588092755227, 0.0, 0.0], [-4.346356579795856e-05, 9.737616097460199e-05, -6.503350145609319e-05, 0.0, 106.82446965118793, 0.0], [-1.4266460673051133e-05, 8.057055906688389e-05, 7.817348181746922e-05, 0.0, 0.0, 50.3047284024489]], 'compliance_tensor': [[8.1, -1.9, -2.9, 0.0, 0.0, -0.0], [-1.9, 8.1, -2.9, -0.0, 0.0, -0.0], [-2.9, -2.9, 8.0, 0.0, -0.0, 0.0], [0.0, -0.0, 0.0, 9.4, -0.0, -0.0], [0.0, 0.0, -0.0, -0.0, 9.4, -0.0], [-0.0, -0.0, 0.0, -0.0, -0.0, 20.1]], 'warnings': [], 'nsites': 8}",0,66,113,0.84,0.25,165
171,mp-540771,BaZrS3,"{'Ba': 1.0, 'Zr': 1.0, 'S': 3.0}",0.196331275,4.220670552,"{'G_Reuss': 32.0, 'G_VRH': 33.0, 'G_Voigt': 34.0, 'G_Voigt_Reuss_Hill': 33.0, 'K_Reuss': 70.0, 'K_VRH': 70.0, 'K_Voigt': 70.0, 'K_Voigt_Reuss_Hill': 70.0, 'elastic_anisotropy': 0.32, 'elastic_tensor': [[105.0, 39.0, 59.0, 0.0, 0.0, 0.0], [39.0, 132.0, 49.0, 0.0, 0.0, 0.0], [59.0, 49.0, 100.0, 0.0, 0.0, 0.0], [0.0, 0.0, 0.0, 32.0, 0.0, 0.0], [0.0, 0.0, 0.0, 0.0, 40.0, 0.0], [0.0, 0.0, 0.0, 0.0, 0.0, 34.0]], 'homogeneous_poisson': 0.3, 'poisson_ratio': 0.3, 'universal_anisotropy': 0.32, 'elastic_tensor_original': [[99.52235117450667, 60.17183681909564, 49.35478186555377, 0.0, 0.0, 0.0], [58.42325837728795, 105.23535659029086, 38.50722864770018, 0.0, 0.0, 0.0], [47.74834714295246, 39.81160947128193, 131.72809220836064, 0.0, 0.0, 0.0], [-0.03684359394832804, 0.006784038970495658, 0.027986996588984177, 34.4084667315385, 0.0, 0.0], [0.0001919667988920111, 9.856677323197092e-06, -0.00010658007053381479, 0.0, 31.635616767456355, 0.0], [-0.0001363803718138767, 0.0002167733395452376, -0.0006733703764606456, 0.0, 0.0, 39.8702671215288]], 'compliance_tensor': [[14.5, -1.4, -8.0, 0.0, 0.0, -0.0], [-1.4, 9.4, -3.8, 0.0, 0.0, 0.0], [-8.0, -3.8, 16.6, 0.0, 0.0, -0.0], [0.0, 0.0, 0.0, 31.6, 0.0, 0.0], [0.0, 0.0, 0.0, 0.0, 25.1, 0.0], [-0.0, 0.0, -0.0, 0.0, 0.0, 29.1]], 'warnings': [], 'nsites': 20}",0,33,70,0.32,0.3,85.8
172,mp-540809,Zr2Fe12P7,"{'Zr': 2.0, 'Fe': 12.0, 'P': 7.0}",0.16975722,7.290370077,"{'G_Reuss': 126.0, 'G_VRH': 127.0, 'G_Voigt': 128.0, 'G_Voigt_Reuss_Hill': 127.0, 'K_Reuss': 216.0, 'K_VRH': 216.0, 'K_Voigt': 216.0, 'K_Voigt_Reuss_Hill': 216.0, 'elastic_anisotropy': 0.09, 'elastic_tensor': [[372.0, 142.0, 140.0, 0.0, 0.0, 0.0], [142.0, 372.0, 140.0, 0.0, 0.0, 0.0], [140.0, 140.0, 357.0, 0.0, 0.0, 0.0], [0.0, 0.0, 0.0, 149.0, 0.0, 0.0], [0.0, 0.0, 0.0, 0.0, 149.0, 0.0], [0.0, 0.0, 0.0, 0.0, 0.0, 115.0]], 'homogeneous_poisson': 0.25, 'poisson_ratio': 0.25, 'universal_anisotropy': 0.09, 'elastic_tensor_original': [[375.2112682003967, 135.214793023028, 137.08431518577996, 0.0, 0.0, -0.150397166727434], [138.86704638310164, 379.0838172379231, 140.53507148954168, 0.0, 0.0, -0.1994322151902338], [141.13657908715115, 141.13653899251523, 356.7293125132571, 0.0, 0.0, 1.3030600615098244e-05], [-0.00048186691969759137, -0.00044681023462436753, -0.0004327902272579972, 148.82079671994566, 0.024148102680300473, 3.542335193431812e-05], [0.09205853555787814, 0.10685712865734305, 0.07876169079266541, 0.0004961572176144359, 148.77906525537702, -0.005650552941209138], [2.9463921842337695, 1.5640706786461, 0.34464259816048187, 0.0, 0.0, 109.99029358599236]], 'compliance_tensor': [[3.4, -0.9, -1.0, -0.0, -0.0, -0.0], [-0.9, 3.4, -1.0, -0.0, 0.0, -0.0], [-1.0, -1.0, 3.6, 0.0, 0.0, 0.0], [-0.0, -0.0, 0.0, 6.7, -0.0, -0.0], [0.0, -0.0, 0.0, -0.0, 6.7, -0.0], [-0.0, -0.0, 0.0, -0.0, 0.0, 8.7]], 'warnings': [], 'nsites': 21}",0,127,216,0.09,0.25,317.5
173,mp-5541,ZrVSi,"{'Zr': 1.0, 'V': 1.0, 'Si': 1.0}",0.107223138,5.727370857,"{'G_Reuss': 27.0, 'G_VRH': 60.0, 'G_Voigt': 93.0, 'G_Voigt_Reuss_Hill': 60.0, 'K_Reuss': 156.0, 'K_VRH': 156.0, 'K_Voigt': 156.0, 'K_Voigt_Reuss_Hill': 156.0, 'elastic_anisotropy': 12.15, 'elastic_tensor': [[194.0, 180.0, 86.0, 0.0, 0.0, 0.0], [180.0, 194.0, 86.0, 0.0, 0.0, 0.0], [86.0, 86.0, 314.0, 0.0, 0.0, 0.0], [0.0, 0.0, 0.0, 102.0, 0.0, 0.0], [0.0, 0.0, 0.0, 0.0, 102.0, 0.0], [0.0, 0.0, 0.0, 0.0, 0.0, 145.0]], 'homogeneous_poisson': 0.33, 'poisson_ratio': 0.33, 'universal_anisotropy': 12.15, 'elastic_tensor_original': [[193.58474493222786, 180.12227192100806, 85.28707815475575, 0.0, 0.0, 0.0], [180.12268251739414, 193.58572994335714, 85.28834996995208, 0.0, 0.0, 0.0], [85.75704860367765, 85.75704860367765, 314.23623604186906, 0.0, 0.0, 0.0], [6.524183403930341e-05, 0.00012888899181608343, -4.488350185158793e-05, 101.61137490743158, 0.0, 0.0], [0.37626266095468214, 0.1419819512137714, -0.0618396214902478, 0.0, 101.5938842942244, 0.0], [-2.272212121756716, -0.08921118602928334, -0.5805466659332039, 0.0, 0.0, 145.41665912327497]], 'compliance_tensor': [[38.7, -35.6, -0.8, 0.0, 0.0, 0.0], [-35.6, 38.7, -0.8, 0.0, -0.0, -0.0], [-0.8, -0.8, 3.6, 0.0, -0.0, -0.0], [0.0, 0.0, 0.0, 9.8, 0.0, 0.0], [0.0, -0.0, -0.0, 0.0, 9.8, 0.0], [0.0, -0.0, -0.0, 0.0, 0.0, 6.9]], 'warnings': [], 'nsites': 6}",0,60,156,12.15,0.33,159.6
174,mp-557686,ZrVF6,"{'Zr': 1.0, 'V': 1.0, 'F': 6.0}",0.094031489,2.976044906,"{'G_Reuss': 20.0, 'G_VRH': 32.0, 'G_Voigt': 44.0, 'G_Voigt_Reuss_Hill': 32.0, 'K_Reuss': 72.0, 'K_VRH': 72.0, 'K_Voigt': 72.0, 'K_Voigt_Reuss_Hill': 72.0, 'elastic_anisotropy': 6.26, 'elastic_tensor': [[194.0, 11.0, 11.0, 0.0, 0.0, 0.0], [11.0, 194.0, 11.0, 0.0, 0.0, 0.0], [11.0, 11.0, 194.0, 0.0, 0.0, 0.0], [0.0, 0.0, 0.0, 13.0, 0.0, 0.0], [0.0, 0.0, 0.0, 0.0, 13.0, 0.0], [0.0, 0.0, 0.0, 0.0, 0.0, 13.0]], 'homogeneous_poisson': 0.31, 'poisson_ratio': 0.31, 'universal_anisotropy': 6.26, 'elastic_tensor_original': [[194.42205021256885, 11.363936937359028, 11.363936937359028, 0.0, 0.0, 0.0], [11.362683808687548, 194.4231795385406, 11.362683808687548, 0.0, 0.0, 0.0], [11.364106602430912, 11.364106602430912, 194.42393148476108, 0.0, 0.0, 0.0], [-8.443344062842904e-05, -1.3446629432095818e-05, -0.00014494024062018193, 12.93445110779246, 0.0, 0.0], [-0.00011003316221060826, -0.00018010003662968953, -0.00030232027007969235, 0.0, 12.934465324469464, 0.0], [-1.9933307079156337e-05, -2.7066206167404303e-06, -1.4509969193248717e-05, 0.0, 0.0, 12.934448591122335]], 'compliance_tensor': [[5.2, -0.3, -0.3, 0.0, 0.0, 0.0], [-0.3, 5.2, -0.3, -0.0, -0.0, 0.0], [-0.3, -0.3, 5.2, 0.0, 0.0, -0.0], [0.0, -0.0, 0.0, 77.3, 0.0, -0.0], [0.0, -0.0, 0.0, 0.0, 77.3, -0.0], [0.0, 0.0, -0.0, -0.0, -0.0, 77.3]], 'warnings': [], 'nsites': 8}",0,32,72,6.26,0.31,83.84
175,mp-569344,Zr(CoSi)2,"{'Zr': 1.0, 'Co': 2.0, 'Si': 2.0}",0.114388568,6.473514957,"{'G_Reuss': 108.0, 'G_VRH': 109.0, 'G_Voigt': 109.0, 'G_Voigt_Reuss_Hill': 109.0, 'K_Reuss': 186.0, 'K_VRH': 186.0, 'K_Voigt': 186.0, 'K_Voigt_Reuss_Hill': 186.0, 'elastic_anisotropy': 0.07, 'elastic_tensor': [[307.0, 122.0, 123.0, 0.0, 0.0, 0.0], [122.0, 307.0, 123.0, 0.0, 0.0, 0.0], [123.0, 123.0, 327.0, 0.0, 0.0, 0.0], [0.0, 0.0, 0.0, 113.0, 0.0, 0.0], [0.0, 0.0, 0.0, 0.0, 113.0, 0.0], [0.0, 0.0, 0.0, 0.0, 0.0, 130.0]], 'homogeneous_poisson': 0.26, 'poisson_ratio': 0.26, 'universal_anisotropy': 0.07, 'elastic_tensor_original': [[306.80416528216415, 121.71958257456365, 120.2391703572016, 0.0, 0.0, 0.0], [121.71992270183681, 306.804179675914, 120.23923772473515, 0.0, 0.0, 0.0], [125.91834742664841, 125.91834742664841, 327.4264330449724, 0.0, 0.0, 0.0], [-1.3169973100633157e-05, 6.8446531874929e-05, 2.7659931248305527e-05, 112.91949692764729, 0.0, 0.0], [3.2899843594238435e-05, -5.557997787064427e-05, -1.179339935498459e-05, 0.0, 112.91949854765832, 0.0], [-0.00023751406560171138, -0.00023823406520052552, -0.000255064088735105, 0.0, 0.0, 129.97531083616417]], 'compliance_tensor': [[4.2, -1.2, -1.1, 0.0, 0.0, 0.0], [-1.2, 4.2, -1.1, -0.0, 0.0, 0.0], [-1.1, -1.1, 3.9, 0.0, -0.0, -0.0], [0.0, -0.0, 0.0, 8.9, -0.0, -0.0], [0.0, 0.0, -0.0, -0.0, 8.9, 0.0], [0.0, 0.0, -0.0, -0.0, 0.0, 7.7]], 'warnings': [], 'nsites': 5}",0,109,186,0.07,0.26,274.68
176,mp-607475,Zr4In5Co2,"{'Zr': 4.0, 'In': 5.0, 'Co': 2.0}",0.140680757,7.750873048,"{'G_Reuss': 52.0, 'G_VRH': 53.0, 'G_Voigt': 54.0, 'G_Voigt_Reuss_Hill': 53.0, 'K_Reuss': 89.0, 'K_VRH': 89.0, 'K_Voigt': 90.0, 'K_Voigt_Reuss_Hill': 89.0, 'elastic_anisotropy': 0.16, 'elastic_tensor': [[173.0, 61.0, 54.0, 0.0, -11.0, 0.0], [61.0, 149.0, 50.0, 0.0, -3.0, 0.0], [54.0, 50.0, 155.0, 0.0, 10.0, 0.0], [0.0, 0.0, 0.0, 60.0, 0.0, -1.0], [-11.0, -3.0, 10.0, 0.0, 47.0, 0.0], [0.0, 0.0, 0.0, -1.0, 0.0, 59.0]], 'homogeneous_poisson': 0.25, 'poisson_ratio': 0.25, 'universal_anisotropy': 0.16, 'elastic_tensor_original': [[148.72919984237285, 47.433939316610605, 57.856496065000435, -3.449716543233175, 0.0, 0.0], [52.054939184922326, 155.02983831762214, 53.778816953856925, 10.394790476842743, 0.0, 0.0], [64.99895478885705, 54.42818191545675, 172.67888533138347, -11.109738032067218, 0.0, 0.0], [-2.5937969441332047, 10.37479574725839, -10.191844939519836, 46.91087406954295, 0.0, 0.0], [0.102509249127427, 0.08961358420519691, 0.08875243054316438, -0.00020628007873642782, 58.508862522631894, -1.0555444762310349], [-0.019245920651318908, -0.038021087790308494, -0.027392020415424125, 0.006668302535526756, -1.0754686589315916, 59.849053150080685]], 'compliance_tensor': [[7.4, -2.3, -1.9, 0.0, 2.0, 0.0], [-2.3, 8.3, -1.9, 0.0, 0.4, 0.0], [-1.9, -1.9, 7.9, 0.0, -2.3, 0.0], [0.0, 0.0, 0.0, 16.7, 0.0, 0.3], [2.0, 0.4, -2.3, 0.0, 22.3, 0.0], [0.0, 0.0, 0.0, 0.3, 0.0, 17.1]], 'warnings': [], 'nsites': 11}",0,53,89,0.16,0.25,132.5
177,mp-7930,Zr3(Cu2Si)2,"{'Zr': 3.0, 'Cu': 4.0, 'Si': 2.0}",0.131675443,6.883905119,"{'G_Reuss': 71.0, 'G_VRH': 75.0, 'G_Voigt': 79.0, 'G_Voigt_Reuss_Hill': 75.0, 'K_Reuss': 138.0, 'K_VRH': 138.0, 'K_Voigt': 138.0, 'K_Voigt_Reuss_Hill': 138.0, 'elastic_anisotropy': 0.6, 'elastic_tensor': [[216.0, 80.0, 111.0, 0.0, 0.0, 0.0], [80.0, 216.0, 111.0, 0.0, 0.0, 0.0], [111.0, 111.0, 207.0, 0.0, 0.0, 0.0], [0.0, 0.0, 0.0, 108.0, 0.0, 0.0], [0.0, 0.0, 0.0, 0.0, 108.0, 0.0], [0.0, 0.0, 0.0, 0.0, 0.0, 68.0]], 'homogeneous_poisson': 0.27, 'poisson_ratio': 0.27, 'universal_anisotropy': 0.6, 'elastic_tensor_original': [[216.9068020700348, 78.5285448188189, 112.65747193826651, 0.0, 0.0, 0.0], [78.72340634483353, 216.7888530836886, 112.20270616092655, 0.0, 0.0, 0.0], [109.28265165475104, 109.28268021294407, 206.93252561971207, 0.0, 0.0, 0.0], [-0.00040906622250205994, -0.00032264656431147326, -0.0001827100512821831, 108.0287626526984, 0.0, 0.0], [-0.0005208442089749195, -0.00043159739226823974, -0.0004939408304134196, 0.0, 108.0603725511725, 0.0], [9.340472278583498e-06, -0.00011267958515256335, 0.00012892693239754458, 0.0, 0.0, 67.17968166221652]], 'compliance_tensor': [[6.5, -0.8, -3.0, -0.0, 0.0, 0.0], [-0.8, 6.5, -3.0, 0.0, -0.0, 0.0], [-3.0, -3.0, 8.1, 0.0, -0.0, -0.0], [-0.0, 0.0, 0.0, 9.3, 0.0, 0.0], [0.0, -0.0, -0.0, 0.0, 9.3, -0.0], [0.0, 0.0, -0.0, 0.0, -0.0, 14.7]], 'warnings': [], 'nsites': 9}",0,75,138,0.6,0.27,190.5
178,mp-864896,Zr2CoTc,"{'Zr': 2.0, 'Co': 1.0, 'Tc': 1.0}",0.129421134,8.160734344,"{'G_Reuss': 68.0, 'G_VRH': 69.0, 'G_Voigt': 71.0, 'G_Voigt_Reuss_Hill': 69.0, 'K_Reuss': 164.0, 'K_VRH': 164.0, 'K_Voigt': 164.0, 'K_Voigt_Reuss_Hill': 164.0, 'elastic_anisotropy': 0.21, 'elastic_tensor': [[283.0, 105.0, 105.0, 0.0, 0.0, 0.0], [105.0, 283.0, 105.0, 0.0, 0.0, 0.0], [105.0, 105.0, 283.0, 0.0, 0.0, 0.0], [0.0, 0.0, 0.0, 59.0, 0.0, 0.0], [0.0, 0.0, 0.0, 0.0, 59.0, 0.0], [0.0, 0.0, 0.0, 0.0, 0.0, 59.0]], 'homogeneous_poisson': 0.31, 'poisson_ratio': 0.31, 'universal_anisotropy': 0.21, 'elastic_tensor_original': [[283.23705108293507, 104.84605924112334, 104.84651070579397, -9.37642046817728e-06, -1.7316453119952934e-05, 2.354080032435998e-06], [106.36453547288556, 284.02006542203617, 106.36289136743105, 3.4872304209306137e-05, 2.784996377356486e-05, 1.9550834167688792e-05], [103.45088544483215, 103.4509142920965, 281.1641386789099, 1.4184235780104588e-05, 9.974849353097456e-07, 2.6074256208996762e-05], [0.016286800243537295, 0.01634415692280064, 0.016255693570039226, 58.61635305652663, 0.0, 0.0], [0.03764307160042062, 0.03902916857149975, 0.04067414893276587, 0.0, 58.602136100070986, 0.0], [0.010496725638600695, 0.010501102306228681, 0.010466125631881288, 0.0, 0.0, 58.61564638970476]], 'compliance_tensor': [[4.4, -1.2, -1.2, 0.0, -0.0, -0.0], [-1.2, 4.4, -1.2, 0.0, 0.0, -0.0], [-1.2, -1.2, 4.4, -0.0, -0.0, 0.0], [0.0, 0.0, -0.0, 17.1, -0.0, -0.0], [-0.0, 0.0, -0.0, -0.0, 17.1, -0.0], [-0.0, -0.0, 0.0, -0.0, -0.0, 17.1]], 'warnings': [], 'nsites': 4}",0,69,164,0.21,0.31,180.78
179,mp-864921,MgZrIr2,"{'Mg': 1.0, 'Zr': 1.0, 'Ir': 2.0}",0.136114062,12.44632055,"{'G_Reuss': 76.0, 'G_VRH': 79.0, 'G_Voigt': 82.0, 'G_Voigt_Reuss_Hill': 79.0, 'K_Reuss': 178.0, 'K_VRH': 178.0, 'K_Voigt': 178.0, 'K_Voigt_Reuss_Hill': 178.0, 'elastic_anisotropy': 0.38, 'elastic_tensor': [[254.0, 140.0, 140.0, 0.0, 0.0, 0.0], [140.0, 254.0, 140.0, 0.0, 0.0, 0.0], [140.0, 140.0, 254.0, 0.0, 0.0, 0.0], [0.0, 0.0, 0.0, 99.0, 0.0, 0.0], [0.0, 0.0, 0.0, 0.0, 99.0, 0.0], [0.0, 0.0, 0.0, 0.0, 0.0, 99.0]], 'homogeneous_poisson': 0.31, 'poisson_ratio': 0.31, 'universal_anisotropy': 0.38, 'elastic_tensor_original': [[253.766469906407, 139.9372249423637, 139.9372249423637, 0.0, 0.0, 0.0], [139.90209640533786, 253.73220418602924, 139.90209640533786, 0.0, 0.0, 0.0], [139.93084186526923, 139.93084186526923, 253.7605507988906, 0.0, 0.0, 0.0], [-0.000570719794334849, -0.0005112698157569613, -5.519998010797567e-05, 99.27281003266826, 0.0, 0.0], [-0.0005624997972970612, -0.00017328327088996778, -0.0003056132232022597, 0.0, 99.27237579282476, 0.0], [-0.0002750765675386844, -0.00040937985247562695, -0.00040342985461832057, 0.0, 0.0, 99.27277171268206]], 'compliance_tensor': [[6.5, -2.3, -2.3, 0.0, -0.0, -0.0], [-2.3, 6.5, -2.3, -0.0, 0.0, -0.0], [-2.3, -2.3, 6.5, -0.0, -0.0, 0.0], [0.0, -0.0, -0.0, 10.1, -0.0, -0.0], [-0.0, 0.0, -0.0, -0.0, 10.1, 0.0], [-0.0, -0.0, 0.0, -0.0, 0.0, 10.1]], 'warnings': [], 'nsites': 4}",0,79,178,0.38,0.31,206.98
180,mp-865868,LiZrRh2,"{'Li': 1.0, 'Zr': 1.0, 'Rh': 2.0}",0.147136344,8.088548972,"{'G_Reuss': 46.0, 'G_VRH': 46.0, 'G_Voigt': 47.0, 'G_Voigt_Reuss_Hill': 46.0, 'K_Reuss': 138.0, 'K_VRH': 138.0, 'K_Voigt': 138.0, 'K_Voigt_Reuss_Hill': 138.0, 'elastic_anisotropy': 0.07, 'elastic_tensor': [[192.0, 112.0, 112.0, 0.0, 0.0, 0.0], [112.0, 192.0, 112.0, 0.0, 0.0, 0.0], [112.0, 112.0, 192.0, 0.0, 0.0, 0.0], [0.0, 0.0, 0.0, 51.0, 0.0, 0.0], [0.0, 0.0, 0.0, 0.0, 51.0, 0.0], [0.0, 0.0, 0.0, 0.0, 0.0, 51.0]], 'homogeneous_poisson': 0.35, 'poisson_ratio': 0.35, 'universal_anisotropy': 0.07, 'elastic_tensor_original': [[190.79337602889203, 111.35576369442447, 111.35576369442447, 0.0, 0.0, 0.0], [111.30643042671997, 190.74171435605686, 111.30643042671997, 0.0, 0.0, 0.0], [112.0404749804151, 112.0404749804151, 193.07964904314704, 0.0, 0.0, 0.0], [7.245334599563383e-05, -0.0002384533750068312, 0.00013081668952905654, 50.90451262308618, 0.0, 0.0], [0.0001636966952754829, 0.0005484834291906788, 0.0007147401249125203, 0.0, 50.90325766620019, 0.0], [-0.00023739004148764852, -0.0005176834238074765, -0.0005198900908581129, 0.0, 0.0, 50.90333179287981]], 'compliance_tensor': [[9.1, -3.4, -3.4, -0.0, 0.0, 0.0], [-3.4, 9.1, -3.4, 0.0, -0.0, 0.0], [-3.4, -3.4, 9.1, 0.0, 0.0, -0.0], [-0.0, 0.0, 0.0, 19.6, -0.0, -0.0], [0.0, -0.0, 0.0, -0.0, 19.6, 0.0], [0.0, 0.0, -0.0, -0.0, 0.0, 19.6]], 'warnings': [], 'nsites': 4}",0,46,138,0.07,0.35,124.2
181,mp-8786,Zr2NiAs2,"{'Zr': 2.0, 'Ni': 1.0, 'As': 2.0}",0.106087093,7.300473774,"{'G_Reuss': 66.0, 'G_VRH': 68.0, 'G_Voigt': 70.0, 'G_Voigt_Reuss_Hill': 68.0, 'K_Reuss': 136.0, 'K_VRH': 139.0, 'K_Voigt': 141.0, 'K_Voigt_Reuss_Hill': 139.0, 'elastic_anisotropy': 0.4, 'elastic_tensor': [[240.0, 112.0, 101.0, 0.0, 0.0, 0.0], [112.0, 240.0, 101.0, 0.0, 0.0, 0.0], [101.0, 101.0, 166.0, 0.0, 0.0, 0.0], [0.0, 0.0, 0.0, 89.0, 0.0, 0.0], [0.0, 0.0, 0.0, 0.0, 89.0, 0.0], [0.0, 0.0, 0.0, 0.0, 0.0, 64.0]], 'homogeneous_poisson': 0.29, 'poisson_ratio': 0.29, 'universal_anisotropy': 0.4, 'elastic_tensor_original': [[241.00506092603496, 111.26789771528966, 101.95378131626433, 0.0, 0.0, 0.0], [110.88429738487315, 240.96307253099192, 101.48142838820996, 0.0, 0.0, 0.0], [99.75811402965289, 99.75802564371142, 166.03458099980153, 0.0, 0.0, 0.0], [0.015249133058679613, 0.01552043360909299, 0.016563155840312867, 88.73278787805499, 0.0, 0.0], [-0.008421420562115797, -0.008062370464493726, -0.009047057361939058, 0.0, 88.64524229339939, 0.0], [0.0021625729200266085, 0.0020423196061181564, 0.0021624962493435565, 0.0, 0.0, 62.56073317689324]], 'compliance_tensor': [[6.1, -1.7, -2.6, 0.0, 0.0, -0.0], [-1.7, 6.1, -2.6, 0.0, 0.0, -0.0], [-2.6, -2.6, 9.2, -0.0, -0.0, 0.0], [0.0, 0.0, -0.0, 11.3, -0.0, -0.0], [0.0, 0.0, -0.0, -0.0, 11.3, -0.0], [-0.0, -0.0, 0.0, 0.0, -0.0, 15.7]], 'warnings': [], 'nsites': 10}",0,68,139,0.4,0.29,175.44