,mp_id,Formula,Composition,IPF,Density,Elastic_Tensor,E_above_Hull,G_VRH,K_VRH,Elastic_Anisotropy,poisson_ratio,Y_Modulus
182,mp-9381,Zr6FeTe2,"{'Zr': 6.0, 'Fe': 1.0, 'Te': 2.0}",0.190944595,7.415098714,"{'G_Reuss': 59.0, 'G_VRH': 60.0, 'G_Voigt': 60.0, 'G_Voigt_Reuss_Hill': 60.0, 'K_Reuss': 114.0, 'K_VRH': 114.0, 'K_Voigt': 114.0, 'K_Voigt_Reuss_Hill': 114.0, 'elastic_anisotropy': 0.09, 'elastic_tensor': [[187.0, 83.0, 74.0, 0.0, 0.0, 0.0], [83.0, 187.0, 74.0, 0.0, 0.0, 0.0], [74.0, 74.0, 186.0, 0.0, 0.0, 0.0], [0.0, 0.0, 0.0, 70.0, 0.0, 0.0], [0.0, 0.0, 0.0, 0.0, 70.0, 0.0], [0.0, 0.0, 0.0, 0.0, 0.0, 52.0]], 'homogeneous_poisson': 0.28, 'poisson_ratio': 0.28, 'universal_anisotropy': 0.09, 'elastic_tensor_original': [[187.22536469473582, 83.23798603609077, 73.79178668245929, 0.0, 0.0, 0.0], [83.04888226308287, 187.02645774732127, 73.69552250279216, 0.0, 0.0, 0.0], [74.41226936436604, 74.41225778456463, 186.11080441453245, 0.0, 0.0, 0.0], [-0.12089162852582822, -0.1378202912706203, -0.10211511503208075, 70.29587832621273, 0.0, 0.0], [-0.014104674130513096, -0.012039467918324104, -0.01174945178357822, 0.0, 70.2175202702018, 0.0], [-0.0002809998093615219, -0.0002762097580820765, -0.000295679843038602, 0.0, 0.0, 51.91682316864955]], 'compliance_tensor': [[7.2, -2.4, -1.9, 0.0, -0.0, 0.0], [-2.4, 7.2, -1.9, 0.0, 0.0, 0.0], [-1.9, -1.9, 6.9, -0.0, -0.0, -0.0], [0.0, 0.0, -0.0, 14.2, 0.0, 0.0], [-0.0, 0.0, -0.0, 0.0, 14.2, 0.0], [0.0, 0.0, -0.0, 0.0, 0.0, 19.2]], 'warnings': [], 'nsites': 9}",0,60,114,0.09,0.28,153.6
183,mp-961687,ZrSnPd,"{'Zr': 1.0, 'Sn': 1.0, 'Pd': 1.0}",0.115643227,7.995515936,"{'G_Reuss': 55.0, 'G_VRH': 57.0, 'G_Voigt': 58.0, 'G_Voigt_Reuss_Hill': 57.0, 'K_Reuss': 98.0, 'K_VRH': 98.0, 'K_Voigt': 98.0, 'K_Voigt_Reuss_Hill': 98.0, 'elastic_anisotropy': 0.22, 'elastic_tensor': [[156.0, 69.0, 69.0, 0.0, 0.0, 0.0], [69.0, 156.0, 69.0, 0.0, 0.0, 0.0], [69.0, 69.0, 156.0, 0.0, 0.0, 0.0], [0.0, 0.0, 0.0, 67.0, 0.0, 0.0], [0.0, 0.0, 0.0, 0.0, 67.0, 0.0], [0.0, 0.0, 0.0, 0.0, 0.0, 67.0]], 'homogeneous_poisson': 0.26, 'poisson_ratio': 0.26, 'universal_anisotropy': 0.22, 'elastic_tensor_original': [[156.14157912420464, 68.5619356304883, 68.56197843078598, -8.560059532994941e-05, 0.0, 0.0], [68.56210653195683, 156.14157912420086, 68.56206388156114, -0.0001402710953573144, 2.5698912952735164e-07, -3.5094553905563235e-07], [68.56206366732452, 68.56197824875852, 156.14157912420094, -0.00014027102486518302, -1.367829909370249e-07, 4.282657019912566e-08], [0.0, -8.362511764490044e-05, -8.36251381152533e-05, 67.09721003993447, 9.191063871751926e-09, 0.0], [0.0, 0.0, 2.0958665090038227e-07, -1.1398446880177397e-07, 67.09721003993451, -4.1812559800433106e-05], [0.0, -2.095866904401761e-07, 0.0, 1.0479341943575585e-07, -4.182176392156369e-05, 67.09721003994095]], 'compliance_tensor': [[8.7, -2.7, -2.7, -0.0, -0.0, 0.0], [-2.7, 8.7, -2.7, 0.0, 0.0, 0.0], [-2.7, -2.7, 8.7, 0.0, -0.0, -0.0], [-0.0, 0.0, 0.0, 14.9, 0.0, -0.0], [-0.0, 0.0, -0.0, 0.0, 14.9, 0.0], [0.0, 0.0, -0.0, -0.0, 0.0, 14.9]], 'warnings': [], 'nsites': 3}",0,57,98,0.22,0.26,143.64
184,mp-961693,ZrInAu,"{'Zr': 1.0, 'In': 1.0, 'Au': 1.0}",0.162319786,9.634347622,"{'G_Reuss': 44.0, 'G_VRH': 46.0, 'G_Voigt': 48.0, 'G_Voigt_Reuss_Hill': 46.0, 'K_Reuss': 112.0, 'K_VRH': 112.0, 'K_Voigt': 112.0, 'K_Voigt_Reuss_Hill': 112.0, 'elastic_anisotropy': 0.49, 'elastic_tensor': [[154.0, 91.0, 91.0, 0.0, 0.0, 0.0], [91.0, 154.0, 91.0, 0.0, 0.0, 0.0], [91.0, 91.0, 154.0, 0.0, 0.0, 0.0], [0.0, 0.0, 0.0, 59.0, 0.0, 0.0], [0.0, 0.0, 0.0, 0.0, 59.0, 0.0], [0.0, 0.0, 0.0, 0.0, 0.0, 59.0]], 'homogeneous_poisson': 0.32, 'poisson_ratio': 0.32, 'universal_anisotropy': 0.49, 'elastic_tensor_original': [[153.85624284868732, 91.07200076591043, 91.10214292668468, -8.380044698041196e-05, -0.05659210185472647, 0.00026200139748052434], [91.07356423224294, 153.87034805707387, 91.08871910592735, -0.02835222949617401, -8.380894452377197e-05, 0.00026341685488055517], [91.07470873981295, 91.07470873981295, 153.88402845866568, -0.00011220070189855996, -0.00011220070189855996, 0.00019540122237948854], [-0.003827701562426859, 0.2955646254419007, -0.2925576016317278, 58.802685244831785, -0.01155568375616787, 0.003807531165017191], [-0.2941836888812597, -7.175825227747923e-09, 0.2940760612245698, 0.007808913113105033, 58.80952756390641, -2.7419742144451653e-05], [0.5867606522290523, -0.5896209782114952, 0.003827610517618212, 0.0038018017645742416, 0.0038400903445680564, 58.81642369562109]], 'compliance_tensor': [[11.6, -4.3, -4.3, -0.0, 0.0, -0.0], [-4.3, 11.6, -4.3, 0.0, -0.0, -0.0], [-4.3, -4.3, 11.6, 0.0, 0.0, 0.0], [-0.0, 0.0, 0.0, 17.0, -0.0, 0.0], [0.0, -0.0, 0.0, -0.0, 17.0, 0.0], [-0.0, -0.0, 0.0, 0.0, 0.0, 17.0]], 'warnings': [], 'nsites': 3}",0,46,112,0.49,0.32,121.44
185,mp-961713,ZrSnPt,"{'Zr': 1.0, 'Sn': 1.0, 'Pt': 1.0}",0.109391807,10.15542847,"{'G_Reuss': 86.0, 'G_VRH': 87.0, 'G_Voigt': 87.0, 'G_Voigt_Reuss_Hill': 87.0, 'K_Reuss': 130.0, 'K_VRH': 130.0, 'K_Voigt': 130.0, 'K_Voigt_Reuss_Hill': 130.0, 'elastic_anisotropy': 0.02, 'elastic_tensor': [[236.0, 77.0, 77.0, 0.0, 0.0, 0.0], [77.0, 236.0, 77.0, 0.0, 0.0, 0.0], [77.0, 77.0, 236.0, 0.0, 0.0, 0.0], [0.0, 0.0, 0.0, 92.0, 0.0, 0.0], [0.0, 0.0, 0.0, 0.0, 92.0, 0.0], [0.0, 0.0, 0.0, 0.0, 0.0, 92.0]], 'homogeneous_poisson': 0.23, 'poisson_ratio': 0.23, 'universal_anisotropy': 0.02, 'elastic_tensor_original': [[236.0561553896382, 76.69197106868286, 76.69194726903793, -1.1999820980334806e-05, 3.659945399002116e-05, 0.0], [76.69197106868288, 236.0561553896382, 76.69194726903802, -3.692535080481906e-05, 1.1999820973398994e-05, 0.0], [76.69199504379041, 76.69199495606846, 236.05615538965327, -1.1943691849789471e-05, 1.1780743402373083e-05, 5.61328727015275e-08], [0.0, 0.9169586223146631, -0.9169868956581282, 91.69034896892256, 9.854871161567494e-08, -4.2804402635113814e-08], [-0.9169586223146918, 0.0, 0.9169868956580884, -4.28043784241239e-08, 91.69034896892033, 9.854872021096963e-08], [0.9169584795112837, -0.9169584795112837, 0.0, 1.4520825037185465e-05, -1.4179474151679656e-05, 91.69034911151945]], 'compliance_tensor': [[5.0, -1.2, -1.2, -0.0, -0.0, 0.0], [-1.2, 5.0, -1.2, 0.0, 0.0, 0.0], [-1.2, -1.2, 5.0, 0.0, -0.0, -0.0], [-0.0, 0.0, 0.0, 10.9, 0.0, -0.0], [-0.0, 0.0, -0.0, 0.0, 10.9, 0.0], [0.0, 0.0, -0.0, -0.0, 0.0, 10.9]], 'warnings': [], 'nsites': 3}",0,87,130,0.02,0.23,214.02
186,mp-972327,Zr2CoOs,"{'Zr': 2.0, 'Co': 1.0, 'Os': 1.0}",0.1227708,10.34531065,"{'G_Reuss': 67.0, 'G_VRH': 68.0, 'G_Voigt': 68.0, 'G_Voigt_Reuss_Hill': 68.0, 'K_Reuss': 144.0, 'K_VRH': 144.0, 'K_Voigt': 144.0, 'K_Voigt_Reuss_Hill': 144.0, 'elastic_anisotropy': 0.07, 'elastic_tensor': [[248.0, 92.0, 92.0, 0.0, 0.0, 0.0], [92.0, 248.0, 92.0, 0.0, 0.0, 0.0], [92.0, 92.0, 248.0, 0.0, 0.0, 0.0], [0.0, 0.0, 0.0, 62.0, 0.0, 0.0], [0.0, 0.0, 0.0, 0.0, 62.0, 0.0], [0.0, 0.0, 0.0, 0.0, 0.0, 62.0]], 'homogeneous_poisson': 0.3, 'poisson_ratio': 0.3, 'universal_anisotropy': 0.07, 'elastic_tensor_original': [[248.0884212400171, 91.97320543540664, 91.97320543540664, -0.5089811220225904, -0.006378719333128401, 0.006378719333128401], [91.97320543540664, 248.0884212400171, 91.97320543540664, -0.006378719333115693, 0.5089811220225974, -0.006377519310672511], [91.97320543540664, 91.97320543540664, 248.0884212400171, -0.006377519310665626, -0.006377519310665626, 0.5089811220225904], [0.0, 0.0, 0.0, 61.526891208894014, 0.0, 0.0], [0.0, 0.0, 0.0, 0.0, 61.526891208894014, 0.0], [0.0, 0.0, 0.0, 0.0, 0.0, 61.526891208894014]], 'compliance_tensor': [[5.0, -1.4, -1.4, 0.0, -0.0, 0.0], [-1.4, 5.0, -1.4, -0.0, 0.0, -0.0], [-1.4, -1.4, 5.0, -0.0, -0.0, -0.0], [0.0, -0.0, -0.0, 16.3, 0.0, -0.0], [-0.0, 0.0, -0.0, 0.0, 16.3, -0.0], [0.0, -0.0, -0.0, -0.0, -0.0, 16.3]], 'warnings': [], 'nsites': 4}",0,68,144,0.07,0.3,176.8
187,mp-974943,HfZrTc2,"{'Hf': 1.0, 'Zr': 1.0, 'Tc': 2.0}",0.122386736,10.93601616,"{'G_Reuss': 65.0, 'G_VRH': 67.0, 'G_Voigt': 69.0, 'G_Voigt_Reuss_Hill': 67.0, 'K_Reuss': 141.0, 'K_VRH': 141.0, 'K_Voigt': 141.0, 'K_Voigt_Reuss_Hill': 141.0, 'elastic_anisotropy': 0.32, 'elastic_tensor': [[263.0, 81.0, 81.0, 0.0, 0.0, 0.0], [81.0, 263.0, 81.0, 0.0, 0.0, 0.0], [81.0, 81.0, 263.0, 0.0, 0.0, 0.0], [0.0, 0.0, 0.0, 55.0, 0.0, 0.0], [0.0, 0.0, 0.0, 0.0, 55.0, 0.0], [0.0, 0.0, 0.0, 0.0, 0.0, 55.0]], 'homogeneous_poisson': 0.29, 'poisson_ratio': 0.29, 'universal_anisotropy': 0.32, 'elastic_tensor_original': [[263.14920078193313, 80.63383032137457, 80.63383032137457, 0.0, 0.0, 0.0], [80.63383032137459, 263.14920078193313, 80.63383032137465, 0.0, 0.0, 0.0], [80.63383032137463, 80.63383032137457, 263.14920078193313, 0.0, 0.0, 0.0], [0.0, 0.0, 0.0, 54.91422756184031, 0.0, 0.0], [0.0, 0.0, 0.0, 0.0, 54.91422756184033, 0.0], [0.0, 0.0, 0.0, 0.0, 0.0, 54.91422756184032]], 'compliance_tensor': [[4.4, -1.0, -1.0, -0.0, 0.0, -0.0], [-1.0, 4.4, -1.0, 0.0, -0.0, 0.0], [-1.0, -1.0, 4.4, 0.0, 0.0, -0.0], [-0.0, 0.0, 0.0, 18.2, 0.0, 0.0], [0.0, -0.0, 0.0, 0.0, 18.2, 0.0], [-0.0, 0.0, -0.0, 0.0, 0.0, 18.2]], 'warnings': [], 'nsites': 4}",0,67,141,0.32,0.29,172.86
188,mp-977435,ZrAlRh2,"{'Zr': 1.0, 'Al': 1.0, 'Rh': 2.0}",0.115898115,8.407870126,"{'G_Reuss': 196.0, 'G_VRH': 100.0, 'G_Voigt': 3.0, 'G_Voigt_Reuss_Hill': 100.0, 'K_Reuss': 201.0, 'K_VRH': 201.0, 'K_Voigt': 201.0, 'K_Voigt_Reuss_Hill': 201.0, 'elastic_anisotropy': -4.92, 'elastic_tensor': [[91.0, 257.0, 257.0, 0.0, 0.0, 0.0], [257.0, 91.0, 257.0, 0.0, 0.0, 0.0], [257.0, 257.0, 91.0, 0.0, 0.0, 0.0], [0.0, 0.0, 0.0, 60.0, 0.0, 0.0], [0.0, 0.0, 0.0, 0.0, 60.0, 0.0], [0.0, 0.0, 0.0, 0.0, 0.0, 60.0]], 'homogeneous_poisson': 0.29, 'poisson_ratio': 0.29, 'universal_anisotropy': -4.92, 'elastic_tensor_original': [[91.06027563222385, 256.6987477515375, 256.6987477515375, 0.0, 0.0, 0.0], [256.6987477515375, 91.06027563222385, 256.6987477515375, 0.0, 0.0, 0.0], [256.6987477515375, 256.6987477515375, 91.06027563222385, 0.0, 0.0, 0.0], [0.0, 0.0, 0.0, 60.421057204201695, -0.04913791539583563, 0.0], [0.0, 0.0, 0.0, 0.04913791539583424, 60.421057204201695, 0.0], [0.0, 0.0, 0.0, 0.0, 0.04914071543090604, 60.42105350415535]], 'compliance_tensor': [[-3.5, 2.6, 2.6, -0.0, -0.0, 0.0], [2.6, -3.5, 2.6, -0.0, -0.0, -0.0], [2.6, 2.6, -3.5, -0.0, -0.0, 0.0], [-0.0, -0.0, -0.0, 16.6, -0.0, -0.0], [-0.0, -0.0, -0.0, -0.0, 16.6, -0.0], [0.0, -0.0, 0.0, -0.0, -0.0, 16.6]], 'warnings': ['Elastic tensor has a negative eigenvalue', 'c11 and c12 are within 5% or c12 is greater than c11', 'c11 and c13 are within 5% or c13 is greater than c11', 'c11 and c23 are within 5% or c23 is greater than c11'], 'nsites': 4}",0,100,201,-4.92,0.29,258
189,mp-977462,ZrCdAu2,"{'Zr': 1.0, 'Cd': 1.0, 'Au': 2.0}",0.233770692,12.64002032,"{'G_Reuss': 11.0, 'G_VRH': 25.0, 'G_Voigt': 39.0, 'G_Voigt_Reuss_Hill': 25.0, 'K_Reuss': 149.0, 'K_VRH': 149.0, 'K_Voigt': 149.0, 'K_Voigt_Reuss_Hill': 149.0, 'elastic_anisotropy': 13.03, 'elastic_tensor': [[155.0, 146.0, 146.0, 0.0, 0.0, 0.0], [146.0, 155.0, 146.0, 0.0, 0.0, 0.0], [146.0, 146.0, 155.0, 0.0, 0.0, 0.0], [0.0, 0.0, 0.0, 61.0, 0.0, 0.0], [0.0, 0.0, 0.0, 0.0, 61.0, 0.0], [0.0, 0.0, 0.0, 0.0, 0.0, 61.0]], 'homogeneous_poisson': 0.42, 'poisson_ratio': 0.42, 'universal_anisotropy': 13.03, 'elastic_tensor_original': [[155.15984498772872, 145.56009014890685, 145.56009014890685, 0.0, 0.0, 0.0], [145.56009014890685, 155.1598449877287, 145.56009014890694, 0.0, 0.0, 0.0], [145.5600901489069, 145.56009014890685, 155.15984498772872, 0.0, 0.0, 0.0], [0.0, 0.0, 0.0, 61.325053441729004, -0.011247273524080309, 0.0], [0.0, 0.0, 0.0, 0.011247273524078106, 61.325053441729004, 0.0], [0.0, 0.0, 0.0, 0.0, 0.011244773529962351, 61.325054541726416]], 'compliance_tensor': [[70.2, -34.0, -34.0, -0.0, -0.0, 0.0], [-34.0, 70.2, -34.0, -0.0, -0.0, -0.0], [-34.0, -34.0, 70.2, 0.0, 0.0, 0.0], [-0.0, -0.0, 0.0, 16.3, 0.0, 0.0], [-0.0, -0.0, 0.0, 0.0, 16.3, 0.0], [0.0, -0.0, 0.0, 0.0, 0.0, 16.3]], 'warnings': [], 'nsites': 4}",0,25,149,13.03,0.42,71
190,mp-977534,ZrNbTc2,"{'Zr': 1.0, 'Nb': 1.0, 'Tc': 2.0}",0.123039323,9.255031964,"{'G_Reuss': 89.0, 'G_VRH': 92.0, 'G_Voigt': 96.0, 'G_Voigt_Reuss_Hill': 92.0, 'K_Reuss': 246.0, 'K_VRH': 246.0, 'K_Voigt': 246.0, 'K_Voigt_Reuss_Hill': 246.0, 'elastic_anisotropy': 0.39, 'elastic_tensor': [[418.0, 159.0, 159.0, 0.0, 0.0, 0.0], [159.0, 418.0, 159.0, 0.0, 0.0, 0.0], [159.0, 159.0, 418.0, 0.0, 0.0, 0.0], [0.0, 0.0, 0.0, 73.0, 0.0, 0.0], [0.0, 0.0, 0.0, 0.0, 73.0, 0.0], [0.0, 0.0, 0.0, 0.0, 0.0, 73.0]], 'homogeneous_poisson': 0.33, 'poisson_ratio': 0.33, 'universal_anisotropy': 0.39, 'elastic_tensor_original': [[417.67005396092486, 159.4999946048789, 159.4999946048789, 0.6562362111118009, -0.003259934482567863, 0.003259934482567863], [159.4999946048789, 417.67005396092486, 159.4999946048789, -0.0032599344825590534, -0.6562362111117961, -0.003250534671479233], [159.4999946048789, 159.4999946048789, 417.67005396092486, -0.0032505346714743694, -0.0032505346714743694, -0.6562362111118009], [0.0, 0.0, 0.0, 73.34556157103108, 0.0, 0.0], [0.0, 0.0, 0.0, 0.0, 73.34556157103108, 0.0], [0.0, 0.0, 0.0, 0.0, 0.0, 73.34556157103108]], 'compliance_tensor': [[3.0, -0.8, -0.8, 0.0, -0.0, 0.0], [-0.8, 3.0, -0.8, -0.0, 0.0, -0.0], [-0.8, -0.8, 3.0, -0.0, -0.0, -0.0], [0.0, -0.0, -0.0, 13.6, 0.0, -0.0], [-0.0, 0.0, -0.0, 0.0, 13.6, -0.0], [0.0, -0.0, -0.0, -0.0, -0.0, 13.6]], 'warnings': [], 'nsites': 4}",0,92,246,0.39,0.33,244.72
191,mp-977537,ZrCdRh2,"{'Zr': 1.0, 'Cd': 1.0, 'Rh': 2.0}",0.167608291,9.863861657,"{'G_Reuss': 54.0, 'G_VRH': 58.0, 'G_Voigt': 62.0, 'G_Voigt_Reuss_Hill': 58.0, 'K_Reuss': 154.0, 'K_VRH': 154.0, 'K_Voigt': 154.0, 'K_Voigt_Reuss_Hill': 154.0, 'elastic_anisotropy': 0.79, 'elastic_tensor': [[203.0, 130.0, 130.0, 0.0, 0.0, 0.0], [130.0, 203.0, 130.0, 0.0, 0.0, 0.0], [130.0, 130.0, 203.0, 0.0, 0.0, 0.0], [0.0, 0.0, 0.0, 80.0, 0.0, 0.0], [0.0, 0.0, 0.0, 0.0, 80.0, 0.0], [0.0, 0.0, 0.0, 0.0, 0.0, 80.0]], 'homogeneous_poisson': 0.33, 'poisson_ratio': 0.33, 'universal_anisotropy': 0.79, 'elastic_tensor_original': [[202.52446880761565, 130.16357307395842, 130.1579701484955, -1.5996446198719207, -0.07088438727109864, 0.5333027419248959], [130.17955903696856, 202.54467288520422, 130.1793976412716, 0.5159714435037832, -0.07027292642878065, 0.5164964295069467], [130.16580171153728, 130.1684805784927, 202.52952232912767, -0.0018587563324358972, 0.219337237576617, 0.7726639985673199], [0.09943349548875693, 0.3752895220228145, -0.1586558142293581, 79.81683265198107, 0.08222890742613914, -0.3723986999029044], [-0.05395920202700714, -0.04272801511830263, -0.05023185011905064, -0.47216649011531187, 79.54712552691561, -0.2830945287005519], [0.7501972465024004, -0.8498123421261808, -0.05677422481047175, -0.24687850015071794, -0.19877028882221515, 79.7442860623409]], 'compliance_tensor': [[9.9, -3.9, -3.9, 0.0, 0.0, -0.0], [-3.9, 9.9, -3.9, -0.0, -0.0, -0.0], [-3.9, -3.9, 9.9, -0.0, 0.0, 0.0], [0.0, -0.0, -0.0, 12.5, -0.0, 0.0], [0.0, -0.0, 0.0, -0.0, 12.5, -0.0], [-0.0, -0.0, 0.0, 0.0, -0.0, 12.5]], 'warnings': [], 'nsites': 4}",0,58,154,0.79,0.33,154.28
192,mp-977578,Zr2TcPd,"{'Zr': 2.0, 'Tc': 1.0, 'Pd': 1.0}",0.130350787,8.744586556,"{'G_Reuss': 54.0, 'G_VRH': 54.0, 'G_Voigt': 54.0, 'G_Voigt_Reuss_Hill': 54.0, 'K_Reuss': 156.0, 'K_VRH': 156.0, 'K_Voigt': 156.0, 'K_Voigt_Reuss_Hill': 156.0, 'elastic_anisotropy': 0.04, 'elastic_tensor': [[220.0, 123.0, 123.0, 0.0, 0.0, 0.0], [123.0, 220.0, 123.0, 0.0, 0.0, 0.0], [123.0, 123.0, 220.0, 0.0, 0.0, 0.0], [0.0, 0.0, 0.0, 58.0, 0.0, 0.0], [0.0, 0.0, 0.0, 0.0, 58.0, 0.0], [0.0, 0.0, 0.0, 0.0, 0.0, 58.0]], 'homogeneous_poisson': 0.34, 'poisson_ratio': 0.34, 'universal_anisotropy': 0.04, 'elastic_tensor_original': [[219.6516069210969, 123.48384004036731, 123.48384004036731, 0.0, 0.0, 0.0], [123.48384004036731, 219.6516069210969, 123.48384004036731, 0.0, 0.0, 0.0], [123.48384004036731, 123.48384004036731, 219.6516069210969, 0.0, 0.0, 0.0], [0.0, 0.0, 0.0, 58.238192775192445, 0.0, 0.0], [0.0, 0.0, 0.0, 0.0, 58.238192775192445, 0.0], [0.0, 0.0, 0.0, 0.0, 0.0, 58.238192775192445]], 'compliance_tensor': [[7.6, -2.8, -2.8, -0.0, 0.0, 0.0], [-2.8, 7.6, -2.8, 0.0, -0.0, -0.0], [-2.8, -2.8, 7.6, 0.0, 0.0, 0.0], [-0.0, 0.0, 0.0, 17.2, 0.0, 0.0], [0.0, -0.0, 0.0, 0.0, 17.2, 0.0], [0.0, -0.0, 0.0, 0.0, 0.0, 17.2]], 'warnings': [], 'nsites': 4}",0,54,156,0.04,0.34,144.72
193,mp-977582,ZrZnRh2,"{'Zr': 1.0, 'Zn': 1.0, 'Rh': 2.0}",0.141422343,9.475241412,"{'G_Reuss': 57.0, 'G_VRH': 61.0, 'G_Voigt': 64.0, 'G_Voigt_Reuss_Hill': 61.0, 'K_Reuss': 174.0, 'K_VRH': 174.0, 'K_Voigt': 174.0, 'K_Voigt_Reuss_Hill': 174.0, 'elastic_anisotropy': 0.63, 'elastic_tensor': [[227.0, 148.0, 148.0, 0.0, 0.0, 0.0], [148.0, 227.0, 148.0, 0.0, 0.0, 0.0], [148.0, 148.0, 227.0, 0.0, 0.0, 0.0], [0.0, 0.0, 0.0, 81.0, 0.0, 0.0], [0.0, 0.0, 0.0, 0.0, 81.0, 0.0], [0.0, 0.0, 0.0, 0.0, 0.0, 81.0]], 'homogeneous_poisson': 0.34, 'poisson_ratio': 0.34, 'universal_anisotropy': 0.63, 'elastic_tensor_original': [[227.1564549726317, 147.86395478703992, 147.86395478703992, 0.0, 0.0, 0.0], [147.86395478703992, 227.1564549726317, 147.86395478703992, 0.0, 0.0, 0.0], [147.86395478703992, 147.86395478703992, 227.1564549726317, 0.0, 0.0, 0.0], [0.0, 0.0, 0.0, 80.5178736407591, 0.09223680267541533, 0.0], [0.0, 0.0, 0.0, -0.09223680267541676, 80.5178736407591, 0.0], [0.0, 0.0, 0.0, 0.0, -0.09222240269060501, 80.51787004076287]], 'compliance_tensor': [[9.0, -3.6, -3.6, 0.0, -0.0, -0.0], [-3.6, 9.0, -3.6, -0.0, 0.0, 0.0], [-3.6, -3.6, 9.0, -0.0, -0.0, -0.0], [0.0, -0.0, -0.0, 12.4, -0.0, -0.0], [-0.0, 0.0, -0.0, -0.0, 12.4, -0.0], [-0.0, 0.0, -0.0, -0.0, -0.0, 12.4]], 'warnings': [], 'nsites': 4}",0,61,174,0.63,0.34,163.48
194,mp-1025165,Zr(VGa2)2,"{'Zr': 1.0, 'V': 2.0, 'Ga': 4.0}",0.127229998,7.144804649,"{'G_Reuss': 83.0, 'G_VRH': 86.0, 'G_Voigt': 89.0, 'G_Voigt_Reuss_Hill': 86.0, 'K_Reuss': 127.0, 'K_VRH': 127.0, 'K_Voigt': 128.0, 'K_Voigt_Reuss_Hill': 127.0, 'elastic_anisotropy': 0.37, 'elastic_tensor': [[237.0, 62.0, 62.0, 0.0, 0.0, 0.0], [62.0, 220.0, 112.0, 0.0, 0.0, 0.0], [62.0, 112.0, 220.0, 0.0, 0.0, 0.0], [0.0, 0.0, 0.0, 123.0, 0.0, 0.0], [0.0, 0.0, 0.0, 0.0, 89.0, 0.0], [0.0, 0.0, 0.0, 0.0, 0.0, 89.0]], 'homogeneous_poisson': 0.22, 'poisson_ratio': 0.22, 'universal_anisotropy': 0.37, 'elastic_tensor_original': [[236.93253377315654, 68.89910699405813, 68.89910699405813, 0.0, 1.0599950214059043e-05, 0.0], [54.43907901852173, 220.0192954232435, 112.2399079073069, 0.0, 1.719987040434196e-05, 0.0], [54.43907901852444, 112.23990790730689, 220.01929542324345, 0.0, 3.424399512403276e-05, 2.6924679669995857e-07], [0.0, 1.2278029844517846, -1.227802984451798, 122.77599758025634, -7.048976618206099e-08, 1.902089187534762e-05], [2.756168138684103e-05, 0.0, 0.0, 0.0, 88.54257392632272, 0.0], [0.0, 0.0, 0.0, 0.0, 0.0, 88.54257392632265]], 'compliance_tensor': [[4.7, -0.9, -0.9, -0.0, -0.0, -0.0], [-0.9, 6.3, -3.0, 0.0, 0.0, -0.0], [-0.9, -3.0, 6.3, -0.0, -0.0, 0.0], [-0.0, 0.0, -0.0, 8.1, -0.0, -0.0], [-0.0, 0.0, -0.0, -0.0, 11.3, 0.0], [-0.0, -0.0, 0.0, -0.0, 0.0, 11.3]], 'warnings': [], 'nsites': 7}",0,86,127,0.37,0.22,209.84