,mp_id,Formula,Composition,IPF,Density,Elastic_Tensor,E_above_Hull,G_VRH,K_VRH,Elastic_Anisotropy,poisson_ratio,Y_Modulus
26,mp-1682,ZrAs,"{'Zr': 1.0, 'As': 1.0}",0.093249555,6.650200512,"{'G_Reuss': 60.0, 'G_VRH': 65.0, 'G_Voigt': 71.0, 'G_Voigt_Reuss_Hill': 65.0, 'K_Reuss': 118.0, 'K_VRH': 118.0, 'K_Voigt': 118.0, 'K_Voigt_Reuss_Hill': 118.0, 'elastic_anisotropy': 0.92, 'elastic_tensor': [[172.0, 82.0, 90.0, 0.0, 0.0, 0.0], [82.0, 172.0, 90.0, 0.0, 0.0, 0.0], [90.0, 90.0, 198.0, 0.0, 0.0, 0.0], [0.0, 0.0, 0.0, 107.0, 0.0, 0.0], [0.0, 0.0, 0.0, 0.0, 107.0, 0.0], [0.0, 0.0, 0.0, 0.0, 0.0, 45.0]], 'homogeneous_poisson': 0.27, 'poisson_ratio': 0.27, 'universal_anisotropy': 0.92, 'elastic_tensor_original': [[170.74802841501966, 82.57859386800318, 91.27058809966029, 0.0, 0.0, 0.0], [81.77114622566552, 171.86365879512118, 91.54470189155832, 0.0, 0.0, 0.0], [89.00530767899244, 89.00530281928779, 198.18787443479383, 0.0, 0.0, 0.0], [0.00013627312393533586, -1.0050375344469493e-05, -2.915355506156449e-05, 106.88196729599557, 0.0, 0.0], [-7.971572734094037e-05, 6.470742632414518e-05, 3.666432724605135e-05, 0.0, 107.12767297425604, 0.0], [-0.00017632667836480834, -0.00018515687255440656, 6.090008620897513e-05, 0.0, 0.0, 45.8055913767823]], 'compliance_tensor': [[8.5, -2.6, -2.7, 0.0, 0.0, 0.0], [-2.6, 8.5, -2.7, 0.0, -0.0, 0.0], [-2.7, -2.7, 7.5, -0.0, -0.0, -0.0], [-0.0, 0.0, -0.0, 9.3, 0.0, 0.0], [-0.0, 0.0, -0.0, 0.0, 9.3, 0.0], [0.0, 0.0, -0.0, 0.0, 0.0, 22.1]], 'warnings': [], 'nsites': 8}",0,65,118,0.92,0.27,165.1
27,mp-1683,ZrSe3,"{'Zr': 1.0, 'Se': 3.0}",0.150400728,5.205999281,"{'G_Reuss': 2.0, 'G_VRH': 9.0, 'G_Voigt': 16.0, 'G_Voigt_Reuss_Hill': 9.0, 'K_Reuss': 7.0, 'K_VRH': 16.0, 'K_Voigt': 25.0, 'K_Voigt_Reuss_Hill': 16.0, 'elastic_anisotropy': 31.05, 'elastic_tensor': [[8.0, 2.0, 3.0, 0.0, 0.0, 0.0], [2.0, 105.0, 13.0, 0.0, 0.0, 0.0], [3.0, 13.0, 76.0, 0.0, 0.0, 0.0], [0.0, 0.0, 0.0, 21.0, 0.0, -0.0], [0.0, 0.0, 0.0, 0.0, 1.0, 0.0], [0.0, 0.0, 0.0, -0.0, 0.0, 1.0]], 'homogeneous_poisson': 0.26, 'poisson_ratio': 0.26, 'universal_anisotropy': 31.05, 'elastic_tensor_original': [[105.43521027490993, 13.343367824854473, 2.630882300088009, 0.7114877254316815, 0.0, 0.0], [13.346233462590538, 76.29011663108692, 3.617586165996753, 0.5140687854422427, 0.0, 0.0], [2.277100147389297, 1.6351858024220287, 8.111366914212587, 0.6608980338653351, 0.0, 0.0], [-0.08787345557979008, 0.13756178771567368, -0.1587461716217574, 0.9062874536595148, 0.0, 0.0], [9.201980875073999e-05, -0.05432076043598358, -0.004185914633552903, -0.002903770631625841, 1.3806005473006715, -0.22404271102833426], [0.004559083477254734, 0.0035049190895389557, 0.00632412632815396, -0.00337519936997396, 0.10269051466463186, 20.88556578176197]], 'compliance_tensor': [[126.2, -2.4, -3.8, 0.0, -32.9, 0.0], [-2.4, 9.8, -1.6, 0.0, -2.1, 0.0], [-3.8, -1.6, 13.5, 0.0, -3.1, 0.0], [0.0, 0.0, 0.0, 47.9, 0.0, 2.2], [-32.9, -2.1, -3.1, 0.0, 1114.4, 0.0], [0.0, 0.0, 0.0, 2.2, 0.0, 724.4]], 'warnings': ['c11 and c23 are within 5% or c23 is greater than c11'], 'nsites': 8}",0,9,16,31.05,0.26,22.68
28,mp-1793,Zr3Te,"{'Zr': 3.0, 'Te': 1.0}",0.184418268,7.205173783,"{'G_Reuss': 38.0, 'G_VRH': 39.0, 'G_Voigt': 40.0, 'G_Voigt_Reuss_Hill': 39.0, 'K_Reuss': 106.0, 'K_VRH': 106.0, 'K_Voigt': 106.0, 'K_Voigt_Reuss_Hill': 106.0, 'elastic_anisotropy': 0.26, 'elastic_tensor': [[176.0, 69.0, 69.0, 0.0, 0.0, 0.0], [69.0, 154.0, 95.0, -3.0, 0.0, 0.0], [69.0, 95.0, 154.0, 3.0, 0.0, 0.0], [0.0, -3.0, 3.0, 47.0, 0.0, 0.0], [0.0, 0.0, 0.0, 0.0, 36.0, 0.0], [0.0, 0.0, 0.0, 0.0, 0.0, 36.0]], 'homogeneous_poisson': 0.33, 'poisson_ratio': 0.33, 'universal_anisotropy': 0.26, 'elastic_tensor_original': [[153.7229089751532, 95.33398488252278, 69.20297119121787, 0.0, 0.0, -3.0741047486704254], [95.25700117047981, 153.60243706561917, 69.24536577868552, 0.0, 0.0, 3.1028384205396744], [69.30571543254939, 69.30571543254939, 176.15632950523684, 0.0, 0.0, 5.618959580026231e-07], [0.006776702015140168, -0.005081099011633533, -0.006774652015539311, 35.58455533481822, -0.3190041679478405, 0.005022735689652529], [0.0006009798830984792, -0.0076252185167556856, 0.002718289471242852, 0.31739946825998394, 35.58957482384183, 0.005726715552715725], [-2.5824839431218205, 2.482376657073773, 0.07154966652819095, 0.0, 0.0, 47.309141081676394]], 'compliance_tensor': [[7.3, -2.0, -2.0, 0.0, -0.0, 0.0], [-2.0, 11.2, -6.0, 1.0, 0.0, -0.0], [-2.0, -6.0, 11.2, -1.0, 0.0, -0.0], [-0.0, 1.0, -1.0, 21.3, -0.0, 0.0], [-0.0, 0.0, 0.0, -0.0, 28.1, 0.0], [0.0, -0.0, -0.0, 0.0, 0.0, 28.1]], 'warnings': [], 'nsites': 16}",0,39,106,0.26,0.33,103.74
29,mp-193,Zr2Cu,"{'Zr': 2.0, 'Cu': 1.0}",0.130303607,6.968518037,"{'G_Reuss': 45.0, 'G_VRH': 47.0, 'G_Voigt': 50.0, 'G_Voigt_Reuss_Hill': 47.0, 'K_Reuss': 109.0, 'K_VRH': 109.0, 'K_Voigt': 109.0, 'K_Voigt_Reuss_Hill': 109.0, 'elastic_anisotropy': 0.55, 'elastic_tensor': [[178.0, 65.0, 88.0, 0.0, 0.0, 0.0], [65.0, 178.0, 88.0, 0.0, 0.0, 0.0], [88.0, 88.0, 146.0, 0.0, 0.0, 0.0], [0.0, 0.0, 0.0, 64.0, 0.0, 0.0], [0.0, 0.0, 0.0, 0.0, 64.0, 0.0], [0.0, 0.0, 0.0, 0.0, 0.0, 33.0]], 'homogeneous_poisson': 0.31, 'poisson_ratio': 0.31, 'universal_anisotropy': 0.55, 'elastic_tensor_original': [[178.42780500608905, 64.91875844357436, 88.98874745284976, 0.0, 0.0, 0.0], [64.92780951653242, 178.43753102378682, 88.99781608638064, 0.0, 0.0, 0.0], [86.19931771684227, 86.19931771684227, 145.9496056003378, 0.0, 0.0, 0.0], [-9.100185233848323e-05, -1.8805036489709122e-05, -9.783519778395617e-05, 63.8394713331736, 0.0, 0.0], [2.3005027799457754e-05, -0.00014136697231110563, -4.315677445210795e-05, 0.0, 63.83957253336779, 0.0], [-0.00039941094544216883, -0.00022799898140502922, -0.00025616566174559987, 0.0, 0.0, 33.092923230514195]], 'compliance_tensor': [[8.0, -0.8, -4.3, 0.0, 0.0, -0.0], [-0.8, 8.0, -4.3, 0.0, 0.0, 0.0], [-4.3, -4.3, 12.1, -0.0, -0.0, -0.0], [0.0, 0.0, -0.0, 15.7, 0.0, 0.0], [0.0, 0.0, -0.0, 0.0, 15.7, 0.0], [-0.0, 0.0, -0.0, 0.0, 0.0, 30.2]], 'warnings': [], 'nsites': 3}",0,47,109,0.55,0.31,123.14
30,mp-2049,ZrMo2,"{'Zr': 1.0, 'Mo': 2.0}",0.11826467,8.470043758,"{'G_Reuss': 58.0, 'G_VRH': 59.0, 'G_Voigt': 60.0, 'G_Voigt_Reuss_Hill': 59.0, 'K_Reuss': 192.0, 'K_VRH': 192.0, 'K_Voigt': 192.0, 'K_Voigt_Reuss_Hill': 192.0, 'elastic_anisotropy': 0.1, 'elastic_tensor': [[258.0, 159.0, 159.0, 0.0, 0.0, 0.0], [159.0, 258.0, 159.0, 0.0, 0.0, 0.0], [159.0, 159.0, 258.0, 0.0, 0.0, 0.0], [0.0, 0.0, 0.0, 66.0, 0.0, 0.0], [0.0, 0.0, 0.0, 0.0, 66.0, 0.0], [0.0, 0.0, 0.0, 0.0, 0.0, 66.0]], 'homogeneous_poisson': 0.36, 'poisson_ratio': 0.36, 'universal_anisotropy': 0.1, 'elastic_tensor_original': [[257.714305250829, 157.42390262423405, 157.42382148982907, 0.0031758850051869934, 0.00612566729209579, 0.0013425214190497985], [160.23065321314434, 256.78092371136484, 160.23065321314434, 0.0, 0.0, 0.0], [158.34288631084289, 158.34288631084289, 258.3982633338123, 0.0, 0.0, 0.0], [1.2033356904947723e-06, 4.2833333773825425e-06, 4.216667759139049e-06, 66.20182564960982, 0.0, 0.0], [7.366669838160604e-06, 4.44000219305941e-06, 5.710002293814697e-06, 0.0, 66.2018228096055, 0.0], [-2.0983336762995808e-05, -1.7113341854739375e-05, -1.3513341364774602e-05, 0.0, 0.0, 66.20181230626473]], 'compliance_tensor': [[7.3, -2.8, -2.8, 0.0, -0.0, 0.0], [-2.8, 7.3, -2.8, 0.0, 0.0, -0.0], [-2.8, -2.8, 7.3, -0.0, 0.0, 0.0], [0.0, 0.0, -0.0, 15.1, -0.0, -0.0], [-0.0, 0.0, 0.0, -0.0, 15.1, -0.0], [0.0, -0.0, 0.0, -0.0, -0.0, 15.1]], 'warnings': [], 'nsites': 6}",0,59,192,0.1,0.36,160.48
31,mp-20695,Zr3In,"{'Zr': 3.0, 'In': 1.0}",0.127720968,7.18207305,"{'G_Reuss': 47.0, 'G_VRH': 51.0, 'G_Voigt': 54.0, 'G_Voigt_Reuss_Hill': 51.0, 'K_Reuss': 97.0, 'K_VRH': 97.0, 'K_Voigt': 97.0, 'K_Voigt_Reuss_Hill': 97.0, 'elastic_anisotropy': 0.78, 'elastic_tensor': [[139.0, 76.0, 76.0, 0.0, 0.0, 0.0], [76.0, 139.0, 76.0, 0.0, 0.0, 0.0], [76.0, 76.0, 139.0, 0.0, 0.0, 0.0], [0.0, 0.0, 0.0, 70.0, 0.0, 0.0], [0.0, 0.0, 0.0, 0.0, 70.0, 0.0], [0.0, 0.0, 0.0, 0.0, 0.0, 70.0]], 'homogeneous_poisson': 0.28, 'poisson_ratio': 0.28, 'universal_anisotropy': 0.78, 'elastic_tensor_original': [[138.99264659382942, 75.56005181483287, 75.56005181483287, 0.0, 0.0, 0.0], [75.55727213815035, 138.9894012568457, 75.55727213815035, 0.0, 0.0, 0.0], [75.55651523353716, 75.55651523353716, 138.98895089756866, 0.0, 0.0, 0.0], [5.0509916363279874e-05, -7.6066540708220844e-06, 0.00010301649608759881, 69.58392902305089, 0.0, 0.0], [-0.00044110260293510795, -0.0003969660093521454, -0.00022580295943773083, 0.0, 69.58368224679286, 0.0], [-0.000624248966338599, -0.0005325591181638879, -0.0006142423162426433, 0.0, 0.0, 69.58386257649427]], 'compliance_tensor': [[11.7, -4.1, -4.1, 0.0, 0.0, -0.0], [-4.1, 11.7, -4.1, -0.0, 0.0, -0.0], [-4.1, -4.1, 11.7, -0.0, 0.0, 0.0], [0.0, -0.0, -0.0, 14.4, 0.0, -0.0], [0.0, 0.0, 0.0, 0.0, 14.4, 0.0], [-0.0, -0.0, 0.0, -0.0, 0.0, 14.4]], 'warnings': [], 'nsites': 4}",0,51,97,0.78,0.28,130.56
32,mp-2076,ZrSe2,"{'Zr': 1.0, 'Se': 2.0}",0.13577053,4.93521894,"{'G_Reuss': 4.0, 'G_VRH': 12.0, 'G_Voigt': 20.0, 'G_Voigt_Reuss_Hill': 12.0, 'K_Reuss': 7.0, 'K_VRH': 18.0, 'K_Voigt': 28.0, 'K_Voigt_Reuss_Hill': 18.0, 'elastic_anisotropy': 24.97, 'elastic_tensor': [[95.0, 20.0, 2.0, -1.0, 0.0, 0.0], [20.0, 95.0, 2.0, 1.0, 0.0, 0.0], [2.0, 2.0, 8.0, 0.0, 0.0, 0.0], [-1.0, 1.0, 0.0, 2.0, 0.0, 0.0], [0.0, 0.0, 0.0, 0.0, 2.0, -1.0], [0.0, 0.0, 0.0, 0.0, -1.0, 37.0]], 'homogeneous_poisson': 0.23, 'poisson_ratio': 0.23, 'universal_anisotropy': 24.97, 'elastic_tensor_original': [[95.74784481029441, 19.84860149652526, 3.646387024219684, 1.8679255999499582, 0.0, 0.0], [19.30391598310137, 95.02217986718313, 2.429676926376327, -1.434634868197821, 0.0, 0.0], [1.9392156294929217, 1.939216009738902, 7.970693870053764, 0.0, 0.0, 0.0], [0.15996952608517262, -0.2126152666096697, 0.053259600880418846, 1.4071150691919154, 0.0, 0.0], [-5.9066957515599605e-05, -5.5453560851115976e-05, -1.3703416589558998e-05, -3.914014476788044e-05, 2.094961212688665, 0.3436044986971089], [1.6566653657217614e-05, 2.9493311983374892e-05, 2.0033357273547836e-06, -2.6623312235669776e-05, 0.58348569640928, 36.765269903222496]], 'compliance_tensor': [[11.2, -2.3, -2.8, 5.3, -0.0, -0.0], [-2.3, 11.2, -2.8, -5.3, -0.0, -0.0], [-2.8, -2.8, 127.2, -0.0, 0.0, 0.0], [5.3, -5.3, -0.0, 575.3, -0.0, -0.0], [0.0, -0.0, 0.0, -0.0, 575.3, 10.7], [-0.0, -0.0, 0.0, -0.0, 10.7, 27.0]], 'warnings': [], 'nsites': 3}",0,12,18,24.97,0.23,29.52
33,mp-20800,ZrIn2,"{'Zr': 1.0, 'In': 2.0}",0.141419248,7.830351151,"{'G_Reuss': 44.0, 'G_VRH': 44.0, 'G_Voigt': 45.0, 'G_Voigt_Reuss_Hill': 44.0, 'K_Reuss': 83.0, 'K_VRH': 83.0, 'K_Voigt': 83.0, 'K_Voigt_Reuss_Hill': 83.0, 'elastic_anisotropy': 0.17, 'elastic_tensor': [[130.0, 65.0, 55.0, 0.0, 0.0, 0.0], [65.0, 130.0, 55.0, 0.0, 0.0, 0.0], [55.0, 55.0, 139.0, 0.0, 0.0, 0.0], [0.0, 0.0, 0.0, 47.0, 0.0, 0.0], [0.0, 0.0, 0.0, 0.0, 47.0, 0.0], [0.0, 0.0, 0.0, 0.0, 0.0, 57.0]], 'homogeneous_poisson': 0.27, 'poisson_ratio': 0.27, 'universal_anisotropy': 0.17, 'elastic_tensor_original': [[129.74921971173043, 64.57052447683343, 55.69210524187943, 0.0, 0.0, 0.0], [64.57052264684022, 129.7469429190136, 55.69044564664226, 0.0, 0.0, 0.0], [53.948753350913954, 53.948753350913954, 139.2397005368588, 0.0, 0.0, 0.0], [-0.013510499856257968, -0.02465930551140302, -0.030712155425542783, 46.77060645878107, 0.0, 0.0], [-0.002239006355219229, -0.004311763042143776, -0.00943183439331881, 0.0, 46.756984362100376, 0.0], [0.000454179077200562, 0.0003552728738128851, 0.0007803431595543593, 0.0, 0.0, 57.343187708875384]], 'compliance_tensor': [[11.0, -4.4, -2.6, 0.0, -0.0, 0.0], [-4.4, 11.0, -2.6, -0.0, 0.0, 0.0], [-2.6, -2.6, 9.2, 0.0, 0.0, 0.0], [0.0, -0.0, 0.0, 21.4, 0.0, 0.0], [-0.0, 0.0, 0.0, 0.0, 21.4, 0.0], [0.0, 0.0, 0.0, 0.0, 0.0, 17.4]], 'warnings': [], 'nsites': 12}",0,44,83,0.17,0.27,111.76
34,mp-2089,ZrTe3,"{'Zr': 1.0, 'Te': 3.0}",0.243845226,6.430112617,"{'G_Reuss': 5.0, 'G_VRH': 10.0, 'G_Voigt': 15.0, 'G_Voigt_Reuss_Hill': 10.0, 'K_Reuss': 15.0, 'K_VRH': 21.0, 'K_Voigt': 26.0, 'K_Voigt_Reuss_Hill': 21.0, 'elastic_anisotropy': 10.95, 'elastic_tensor': [[18.0, 6.0, 6.0, 0.0, 0.0, 0.0], [6.0, 65.0, 11.0, 0.0, 0.0, 0.0], [6.0, 11.0, 110.0, 0.0, 1.0, 0.0], [0.0, 0.0, 0.0, 13.0, 0.0, 0.0], [0.0, 0.0, 1.0, 0.0, 2.0, 0.0], [0.0, 0.0, 0.0, 0.0, 0.0, 5.0]], 'homogeneous_poisson': 0.29, 'poisson_ratio': 0.29, 'universal_anisotropy': 10.95, 'elastic_tensor_original': [[64.7059933683818, 10.403554219305747, 7.102294465881008, 0.6309312557973688, 0.0, 0.0], [11.16996120359355, 109.72473963701609, 6.237074658441755, 0.3238820577849693, 0.0, 0.0], [5.284744196085443, 5.337211605121209, 17.969249102559694, 0.4413332591179939, 0.0, 0.0], [0.06224437093278458, 0.9559139995183669, 0.3559641739028107, 1.6978194473413908, 0.0, 0.0], [2.7860002425218945e-05, 0.0001201800104615467, 0.00011700667685275532, 1.9910001733138783e-05, 4.9951131348112385, 0.3659712618568195], [-0.0017558668411033057, 4.7603338062397396e-05, -0.0009134934240843602, 8.767334204326037e-05, 0.23478184332443877, 13.337678918367128]], 'compliance_tensor': [[58.5, -5.1, -2.5, 0.0, -12.0, 0.0], [-5.1, 16.2, -1.3, 0.0, -1.6, 0.0], [-2.5, -1.3, 9.4, 0.0, -2.4, 0.0], [0.0, 0.0, 0.0, 75.1, 0.0, -4.5], [-12.0, -1.6, -2.4, 0.0, 593.1, 0.0], [0.0, 0.0, 0.0, -4.5, 0.0, 200.5]], 'warnings': [], 'nsites': 8}",0,10,21,10.95,0.29,25.8
35,mp-2116,ZrMn2,"{'Zr': 1.0, 'Mn': 2.0}",0.11364645,7.670875936,"{'G_Reuss': 48.0, 'G_VRH': 49.0, 'G_Voigt': 49.0, 'G_Voigt_Reuss_Hill': 49.0, 'K_Reuss': 180.0, 'K_VRH': 180.0, 'K_Voigt': 180.0, 'K_Voigt_Reuss_Hill': 180.0, 'elastic_anisotropy': 0.08, 'elastic_tensor': [[255.0, 142.0, 142.0, 0.0, 0.0, 0.0], [142.0, 255.0, 142.0, 0.0, 0.0, 0.0], [142.0, 142.0, 255.0, 0.0, 0.0, 0.0], [0.0, 0.0, 0.0, 44.0, 0.0, 0.0], [0.0, 0.0, 0.0, 0.0, 44.0, 0.0], [0.0, 0.0, 0.0, 0.0, 0.0, 44.0]], 'homogeneous_poisson': 0.38, 'poisson_ratio': 0.38, 'universal_anisotropy': 0.08, 'elastic_tensor_original': [[255.47638076885372, 141.6246158372955, 141.6246158372955, 0.0, 0.0, 0.0], [141.6358123299005, 255.48760739697883, 141.6358123299005, 0.0, 0.0, 0.0], [141.62059382694622, 141.62059382694622, 255.47242388061528, 0.0, 0.0, 0.0], [0.00013648963350915472, 0.00012241964549394513, 0.00012381298204960486, 43.97737012086683, 0.0, 0.0], [-0.0010625600671734811, -0.0018809236571217104, -0.00028619649053133296, 0.0, 43.9773654142356, 0.0], [8.060343615020867e-05, 8.081343920994357e-05, 9.095010147140394e-05, 0.0, 0.0, 43.97738657423185]], 'compliance_tensor': [[6.5, -2.3, -2.3, -0.0, 0.0, -0.0], [-2.3, 6.5, -2.3, -0.0, -0.0, 0.0], [-2.3, -2.3, 6.5, 0.0, -0.0, -0.0], [-0.0, -0.0, 0.0, 22.7, -0.0, -0.0], [0.0, -0.0, -0.0, -0.0, 22.7, -0.0], [-0.0, 0.0, -0.0, -0.0, -0.0, 22.7]], 'warnings': [], 'nsites': 6}",0,49,180,0.08,0.38,135.24
36,mp-214,ZrRu,"{'Zr': 1.0, 'Ru': 1.0}",0.109548876,9.02937681,"{'G_Reuss': 78.0, 'G_VRH': 81.0, 'G_Voigt': 83.0, 'G_Voigt_Reuss_Hill': 81.0, 'K_Reuss': 183.0, 'K_VRH': 183.0, 'K_Voigt': 183.0, 'K_Voigt_Reuss_Hill': 183.0, 'elastic_anisotropy': 0.34, 'elastic_tensor': [[330.0, 109.0, 109.0, 0.0, 0.0, 0.0], [109.0, 330.0, 109.0, 0.0, 0.0, 0.0], [109.0, 109.0, 330.0, 0.0, 0.0, 0.0], [0.0, 0.0, 0.0, 65.0, 0.0, 0.0], [0.0, 0.0, 0.0, 0.0, 65.0, 0.0], [0.0, 0.0, 0.0, 0.0, 0.0, 65.0]], 'homogeneous_poisson': 0.31, 'poisson_ratio': 0.31, 'universal_anisotropy': 0.34, 'elastic_tensor_original': [[329.88708067201384, 108.82735265409931, 108.82735265409931, 0.0, 0.0, 0.0], [108.82510931571872, 329.88394914975606, 108.82510931571872, 0.0, 0.0, 0.0], [108.84122034249381, 108.84122034249381, 329.9001403535133, 0.0, 0.0, 0.0], [0.0014161918784359607, 0.0012974550542762006, 0.0012900650444740368, 65.19782116827743, 0.0, 0.0], [0.0001352168460181699, 0.00017436689794772303, 0.00022093029304198032, 0.0, 65.19778878156781, 0.0], [-0.00046507395020649496, -0.000512400679647001, -0.0005333373740835707, 0.0, 0.0, 65.19779379824114]], 'compliance_tensor': [[3.6, -0.9, -0.9, -0.0, -0.0, 0.0], [-0.9, 3.6, -0.9, 0.0, -0.0, -0.0], [-0.9, -0.9, 3.6, -0.0, 0.0, -0.0], [-0.0, 0.0, -0.0, 15.3, -0.0, -0.0], [-0.0, -0.0, 0.0, -0.0, 15.3, -0.0], [0.0, -0.0, -0.0, -0.0, -0.0, 15.3]], 'warnings': [], 'nsites': 2}",0,81,183,0.34,0.31,212.22
37,mp-2221,Zr2Ag,"{'Zr': 2.0, 'Ag': 1.0}",0.164930322,7.428326672,"{'G_Reuss': 35.0, 'G_VRH': 40.0, 'G_Voigt': 45.0, 'G_Voigt_Reuss_Hill': 40.0, 'K_Reuss': 101.0, 'K_VRH': 101.0, 'K_Voigt': 101.0, 'K_Voigt_Reuss_Hill': 101.0, 'elastic_anisotropy': 1.47, 'elastic_tensor': [[157.0, 54.0, 91.0, 0.0, 0.0, 0.0], [54.0, 157.0, 91.0, 0.0, 0.0, 0.0], [91.0, 91.0, 126.0, 0.0, 0.0, 0.0], [0.0, 0.0, 0.0, 63.0, 0.0, 0.0], [0.0, 0.0, 0.0, 0.0, 63.0, 0.0], [0.0, 0.0, 0.0, 0.0, 0.0, 32.0]], 'homogeneous_poisson': 0.32, 'poisson_ratio': 0.32, 'universal_anisotropy': 1.47, 'elastic_tensor_original': [[156.79713138553265, 54.01027222585001, 91.24140018300287, 0.0, 0.0, 0.0], [54.01042149899518, 156.79676207217955, 91.24105521423128, 0.0, 0.0, 0.0], [90.79791921294604, 90.79791921294604, 126.04362261350846, 0.0, 0.0, 0.0], [-1.4594993484797862e-05, 2.794513497937065e-05, 1.5698459051997554e-05, 63.20340058789328, 0.0, 0.0], [3.3982795815785223e-06, -0.00012593527055895898, 3.694473772879475e-05, 0.0, 63.20342938750693, 0.0], [2.0302238552942934e-06, 7.944670660845642e-05, 5.3223448010418763e-05, 0.0, 0.0, 32.46670858490473]], 'compliance_tensor': [[11.2, 1.4, -9.1, -0.0, 0.0, -0.0], [1.4, 11.2, -9.1, -0.0, 0.0, -0.0], [-9.1, -9.1, 21.1, 0.0, -0.0, 0.0], [-0.0, -0.0, 0.0, 15.8, -0.0, 0.0], [0.0, 0.0, -0.0, -0.0, 15.8, -0.0], [-0.0, -0.0, 0.0, 0.0, -0.0, 30.8]], 'warnings': [], 'nsites': 3}",0,40,101,1.47,0.32,105.6
38,mp-22447,Zr3P,"{'Zr': 3.0, 'P': 1.0}",0.109573454,6.378793349,"{'G_Reuss': 64.0, 'G_VRH': 64.0, 'G_Voigt': 65.0, 'G_Voigt_Reuss_Hill': 64.0, 'K_Reuss': 125.0, 'K_VRH': 125.0, 'K_Voigt': 125.0, 'K_Voigt_Reuss_Hill': 125.0, 'elastic_anisotropy': 0.03, 'elastic_tensor': [[217.0, 80.0, 80.0, 0.0, 0.0, 0.0], [80.0, 212.0, 84.0, -3.0, 0.0, 0.0], [80.0, 84.0, 212.0, 3.0, 0.0, 0.0], [0.0, -3.0, 3.0, 71.0, 0.0, 0.0], [0.0, 0.0, 0.0, 0.0, 60.0, 0.0], [0.0, 0.0, 0.0, 0.0, 0.0, 60.0]], 'homogeneous_poisson': 0.28, 'poisson_ratio': 0.28, 'universal_anisotropy': 0.03, 'elastic_tensor_original': [[211.6891707975845, 84.41827032087585, 79.4571450339597, 0.0, 0.0, -2.723487133611394], [84.49027670530113, 211.52310151825, 79.50237465334412, 0.0, 0.0, 2.7689527327605226], [79.73963681953043, 79.73963681953043, 217.47382946113612, 0.0, 0.0, -7.940106036206847e-08], [-0.007408853807987598, -0.004009599650492956, 0.01609702590790757, 59.85189237535608, 0.023637629859716208, -0.01662806600430438], [0.008236041052604254, 0.005261048621290128, -0.013910771775500371, -0.017005078468060462, 59.85621214132755, -0.01581430598949395], [-2.621768864287029, 2.648982735507423, 0.02023394437711439, 0.0, 0.0, 71.01447835756812]], 'compliance_tensor': [[5.7, -1.5, -1.5, 0.0, 0.0, 0.0], [-1.5, 6.0, -1.8, 0.3, 0.0, -0.0], [-1.5, -1.8, 6.0, -0.3, -0.0, 0.0], [0.0, 0.3, -0.3, 14.1, -0.0, 0.0], [0.0, 0.0, -0.0, -0.0, 16.7, 0.0], [-0.0, -0.0, 0.0, 0.0, 0.0, 16.7]], 'warnings': [], 'nsites': 32}",0,64,125,0.03,0.28,163.84