mp_id,Formula,IPF,Density,E_above_Hull,G_VRH,K_VRH,Elastic_Anisotropy,poisson_ratio,Y_Modulus
mp-1005,FeP,0.14550248040628322,6.371739342364887,0.0,133.0,212.0,0.28,0.24,329.84
mp-1009077,FeH,0.19513738021337607,7.098567499542508,0.0,91.0,177.0,0.03,0.28,232.96
mp-11385,YFe5,0.2056455695249951,7.107153233920273,0.0,68.0,105.0,0.13,0.23,167.28
mp-1418,FeNi3,0.17367146631257085,8.700535614964549,0.0,96.0,203.0,0.73,0.3,249.6
mp-1570,YFe2,0.2043185026424397,6.8729897874333465,0.0,36.0,92.0,0.25,0.33,95.76
mp-1714,FeSi2,0.10435576052265744,4.958877478506669,0.0,127.0,181.0,0.03,0.21,307.34
mp-1722,Zn13Fe,0.19313314469317516,7.3193844320864025,0.0,42.0,86.0,0.28,0.29,108.36
mp-1804,Fe3N,0.2174494712907349,7.421215789217515,0.0,96.0,207.0,0.04,0.3,249.6
mp-18695,Fe15Co,0.2214510835631901,8.075535767806645,0.5593906250016545,77.0,184.0,0.67,0.32,203.28
mp-1915,Fe2B,0.201753559860406,7.490316374323061,0.0,145.0,227.0,0.02,0.24,359.6
mp-19306,Fe3O4,0.5317615508776439,4.949992970445885,0.0,64.0,176.0,0.18,0.34,171.52
mp-19870,GaFe3,0.1962233976191226,8.032436452051366,0.0,54.0,174.0,7.62,0.36,146.88
mp-19880,FeTe2,0.3230787550130327,8.053991107072365,0.0,74.0,94.0,0.28,0.19,176.12
mp-20027,FeP2,0.10457399221341222,5.127712739268919,0.0,154.0,180.0,0.52,0.17,360.36
mp-2008,FeAs2,0.10876292493400244,7.424133717867275,0.0,110.0,134.0,0.53,0.18,259.6
mp-20311,FeSe,0.17457803488601534,5.619828139849753,0.0,13.0,19.0,36.92,0.22,31.72
mp-20711,Fe3Ge,0.20425035234937108,8.399632972357558,0.0,46.0,177.0,27.17,0.38,126.96
mp-2090,FeCo,0.19552750482387027,8.290362608471677,0.0,91.0,189.0,1.08,0.29,234.78
mp-2199,Fe3Si,0.19209208810439832,7.388613812179111,0.0,93.0,212.0,1.55,0.31,243.66
mp-2213,FeNi,0.1907674586716471,8.452470763420122,0.0,92.0,187.0,1.35,0.29,237.36
mp-2225,Be2Fe,0.16780534254844753,4.7693529463857045,0.0,146.0,158.0,0.02,0.15,335.7999999999999
mp-2463,LuFe2,0.20587900032993334,10.434599016620464,0.0,50.0,83.0,0.1,0.25,125.0
mp-2658,AlFe,0.1635337825325206,5.791723402212628,0.0,95.0,175.0,1.07,0.27,241.3
mp-27164,FeP4,0.07426004152344727,4.1175342188179735,0.7281951666655573,112.0,138.0,0.3,0.18,264.32
mp-2831,FePd,0.18425897489132126,9.670923150072896,0.0,76.0,162.0,0.9,0.3,197.6
mp-305,TiFe,0.1998886594219398,6.642034495803113,0.0,97.0,194.0,0.55,0.29,250.26
mp-556911,FeF2,0.144358749947598,4.067297734527241,0.0,33.0,97.0,1.62,0.35,89.10000000000002
mp-558852,FeF3,0.1170207291147536,3.1330774158156265,0.0,49.0,104.0,3.06,0.3,127.4
mp-568006,DyFe5,0.22184363095015305,8.548117600189117,0.0,65.0,86.0,0.32,0.2,156.0
mp-568077,TaFe2,0.19327346453639424,12.522527213669706,0.0,93.0,228.0,0.06,0.32,245.52
mp-570001,Al6Fe,0.09789489323990884,3.4281382687103252,0.0,56.0,106.0,0.46,0.28,143.36
mp-570553,FeP4,0.07373298156910843,4.0883100579794185,0.0,114.0,141.0,0.44,0.18,269.04
mp-601820,Fe3Co,0.20954903839243388,8.136129054031493,0.0,96.0,187.0,0.49,0.28,245.76
mp-601842,Fe9Co7,0.1979653804218472,8.206826865271259,0.0,97.0,190.0,0.65,0.28,248.32
mp-601848,Fe11Co5,0.20439360401920215,8.108531533908858,0.0,98.0,192.0,0.59,0.28,250.88
mp-636368,Ga3Fe,0.12552372246884655,6.809894203032001,0.0,66.0,102.0,0.34,0.23,162.36
mp-639789,Fe2Re3,0.1476792971076537,16.884043971045738,0.0,101.0,251.0,0.02,0.32,266.64
mp-6988,FeN,0.19241480430505895,6.127073159507482,0.0,60.0,267.0,2.72,0.39,166.8
mp-760,FeSe2,0.2259465293347025,7.0898572130344615,0.0,92.0,118.0,0.28,0.19,218.96
mp-778,Fe2P,0.1760389680764239,7.083597008639862,0.0,89.0,216.0,0.23,0.32,234.96
mp-865212,Fe3Re,0.20385700488606556,12.874922439317725,0.4775339583318328,177.0,310.0,0.07,0.26,446.04
mp-866134,VFe3,0.20810172516849768,7.739814841627519,0.0,90.0,193.0,0.55,0.3,234.0
mp-871,FeSi,0.14791894463886804,6.333879896320733,0.0,139.0,211.0,0.06,0.23,341.94
mp-971669,FeSb3,0.10119575205206092,7.235385105312517,0.0,44.0,82.0,0.56,0.27,111.76
mp-983590,Be3Fe,0.15205066659283706,4.042916437987318,0.0,82.0,155.0,3.48,0.28,209.92
mp-1018725,HoFeSi,0.152978948933995,7.921780119084059,0.0,57.0,92.0,0.87,0.24,141.36
mp-12956,Yb(FeP3)4,0.10222130167586677,5.414620990655353,0.0,108.0,150.0,0.0,0.21,261.36
mp-1522,FeS2,0.20398386201178567,4.89365155220211,0.0,125.0,150.0,0.3,0.17,292.5
mp-1918,FeRh,0.15727479443423822,9.581024882451251,0.0,79.0,197.0,0.8,0.32,208.56
mp-20856,Eu(FeP3)4,0.10895342920113564,5.2072546118558565,0.0,112.0,151.0,0.01,0.2,268.8
mp-20892,ZrFeP,0.14112125045217866,7.004553603311077,0.0,119.0,202.0,0.13,0.25,297.5
mp-22300,FeCo2Ge,0.17674732082160266,8.703471491062963,0.0,71.0,168.0,1.41,0.32,187.44
mp-2260,FePt,0.16996073604521206,14.814623937197833,0.0,92.0,201.0,0.69,0.3,239.2
mp-2866,Yb(FeSi)2,0.15772622596283298,7.537767409339553,0.0,68.0,115.0,0.28,0.25,170.0
mp-31205,Zr3Fe,0.13175370668852934,6.80880443383841,0.0,36.0,104.0,0.17,0.34,96.48
mp-3190,Er(FeB)2,0.17199723440842046,8.298256566490334,0.0,79.0,117.0,0.21,0.22,192.76
mp-3489,Nd(FeSi)2,0.1929636306478071,6.569673706769142,0.0,80.0,125.0,0.25,0.24,198.4
mp-3701,Sc(Al2Fe)4,0.12759692236827402,4.348807153271613,0.0,85.0,126.0,0.19,0.22,207.4
mp-505531,FeS,0.15456986974137746,4.140337296357571,0.0,19.0,30.0,47.19,0.24,47.12
mp-505554,Sc(FeSi)2,0.14361618887288816,5.391728237009906,0.0,110.0,172.0,0.18,0.24,272.8
mp-568725,Dy(FeB)2,0.1928314060287035,8.008231829204718,0.0,75.0,113.0,0.2,0.23,184.5
mp-5778,AlVFe2,0.18172229698259232,6.773327621235782,0.0,137.0,218.0,0.0,0.24,339.76
mp-7600,Th(FeSi)2,0.15089079406668066,8.501325575542893,0.0,88.0,154.0,0.22,0.26,221.76
mp-862288,AlFe2W,0.16552365154728016,10.595547042879602,0.0,64.0,232.0,3.85,0.37,175.36
mp-864764,Ta2FeOs,0.13595772431198386,16.164722811212954,0.0,83.0,249.0,0.19,0.35,224.1
mp-865187,MgFeRh2,0.15279574249770486,8.317102651224308,0.0,73.0,155.0,0.4,0.3,189.8
mp-9198,Fe(SiP)4,0.055335026870076964,3.3459219879134334,0.0,91.0,115.0,0.46,0.19,216.58
mp-1019100,SmFeSi,0.1997474951801632,7.045097021894572,0.0,48.0,76.0,1.29,0.24,119.04
mp-12061,Lu(FeB)2,0.17942564343113718,9.21336916297408,0.0,71.0,148.0,11.58,0.29,183.18
mp-16334,Fe3PdN,0.19676951228902068,8.27411915840166,0.0,85.0,187.0,0.07,0.3,221.0
mp-19102,Sr2FeO4,0.5771798647859696,5.106824805695793,0.0,63.0,111.0,0.03,0.26,158.76
mp-19359,NaFeO2,0.5920539626991935,4.208426588436105,0.0,72.0,114.0,0.3,0.24,178.56
mp-19963,TiFe2Sn,0.1842176596479672,8.367357755094483,0.0,106.0,181.0,0.0,0.26,267.12
mp-22434,HfFeP,0.14317211265699495,10.755335245579223,0.0,125.0,213.0,0.13,0.25,312.5
mp-3155,Sc3FeC4,0.1313160118297123,4.427777483208082,0.0,120.0,178.0,0.11,0.22,292.8
mp-4088,La(FeSi)2,0.1619870600352024,6.226265158917527,0.0,70.0,106.0,0.42,0.23,172.2
mp-4196,NdFeSi2,0.1801205340396293,6.069993532662315,0.0,81.0,115.0,0.14,0.22,197.64
mp-4883,Ba(FeP)2,0.2257445021865103,5.702756767321699,0.0,56.0,90.0,0.55,0.24,138.88
mp-505332,LaFeSi,0.16556574698085802,6.127574045141812,0.0,24.0,38.0,30.77,0.25,60.0
mp-624492,Li(Fe3Ge2)2,0.18318550584879445,7.323536906496803,0.0,65.0,135.0,0.34,0.29,167.70000000000005
mp-8306,Ba3FeN3,0.2903487904128355,5.196240137983644,0.0,19.0,33.0,0.6,0.26,47.88
mp-8648,TiFeSi,0.1501576695810445,5.6248780041688065,0.0,109.0,183.0,0.4,0.25,272.5
mp-9437,NbFeSb,0.13730043256093735,8.448733889055742,0.0,81.0,166.0,0.26,0.29,208.98
mp-16272,Ce(FeP3)4,0.1017619091914366,5.171877804843587,0.0,132.0,161.0,0.02,0.18,311.52
mp-21141,Fe2CuGe2,0.16984691256283047,7.982389200859106,0.7931206666675905,62.0,129.0,0.98,0.29,159.96
mp-21471,LiFeAs,0.15618313575265286,5.211400407134747,0.0,40.0,68.0,0.49,0.25,100.0
mp-27904,FeSbS,0.15666462674286738,6.952996117476952,0.0,97.0,112.0,0.31,0.16,225.04
mp-28884,Cs(FeAs)2,0.291217460302899,5.880310923396108,0.0,26.0,44.0,0.18,0.25,65.0
mp-31187,TiAlFe2,0.18302227726688025,6.253070135591179,0.0,105.0,185.0,0.07,0.26,264.6
mp-3805,Al(FeB)2,0.15354113742872438,5.79199396598175,0.0,129.0,203.0,0.2,0.24,319.92
mp-5399,Tb(FeSi)2,0.1389395877509802,7.200878266867101,0.0,82.0,137.0,0.2,0.25,205.0
mp-5597,Ca(FeP)2,0.1754508400779713,4.868177390439816,0.0,79.0,89.0,1.59,0.16,183.28
mp-561511,FeAsS,0.15310685391173326,6.221555948909835,0.0,117.0,143.0,0.28,0.18,276.12
mp-862290,LiFeRh2,0.1741622516269664,8.524073952353506,0.0,60.0,143.0,1.19,0.32,158.4
mp-866141,TiFe2Si,0.18300581412782066,6.7581276538375015,0.0,146.0,229.0,0.01,0.24,362.08
mp-975359,Rb(FeAs)2,0.2617425348093682,5.6360249502044235,0.0,26.0,49.0,1.0,0.27,66.04
mp-983358,HfAlFe2,0.16546743070198322,9.628102428037316,0.0,91.0,166.0,0.01,0.27,231.14
mp-1029659,Ca3FeN3,0.2166933250015826,3.222255763827941,0.0,47.0,76.0,0.05,0.25,117.5
mp-11201,Sc6FeSb2,0.1249780184086204,4.7611336384527565,0.0,45.0,72.0,0.19,0.24,111.6
mp-12075,Tb(FeB)2,0.15680959796955354,7.821976730972777,0.0,74.0,123.0,0.19,0.25,185.0
mp-19035,BaFeO3,0.6339850627730784,6.104829379579924,0.0,75.0,116.0,0.18,0.24,186.0
mp-20049,LiFeP,0.1579303912105199,3.8747953902789183,0.0,51.0,80.0,0.76,0.24,126.48
mp-20238,Th(FeGe)2,0.17001763779218046,9.65994186354958,0.0,72.0,126.0,0.24,0.26,181.44
mp-20245,CeFeSi,0.1557575610897289,6.792241310030813,0.0,32.0,88.0,6.39,0.34,85.76
mp-20924,U(FeSi)2,0.1458053346377448,9.280268498520932,0.0,82.0,168.0,1.94,0.29,211.56
mp-21662,TiFeSi2,0.12595933635788814,5.1432356119067775,0.0,116.0,180.0,0.03,0.24,287.68
mp-22191,HfFeGe,0.15446623864784298,11.1212707640574,0.0,91.0,197.0,0.25,0.3,236.6
mp-23804,Mg2FeH6,0.1199095288130903,2.7767773872587216,0.0,61.0,79.0,0.01,0.19,145.18
mp-3035,Ce(FeSi)2,0.15386968756067726,6.676438879050527,0.0,76.0,144.0,0.24,0.28,194.56
mp-3618,Sc2FeSi2,0.11957588545877705,4.124423887485785,0.0,75.0,120.0,0.11,0.24,186.0
mp-4488,Sr(FeAs)2,0.18785084506156496,6.319998733248389,0.0,42.0,78.0,1.1,0.27,106.68
mp-4595,VFe2Si,0.17560167243740976,7.112631276806603,0.0,44.0,246.0,22.73,0.42,124.96
mp-510281,FeCuO2,0.4620488694594185,5.361834298244193,0.0,50.0,143.0,2.4,0.34,134.0
mp-540809,Zr2Fe12P7,0.16975722021180134,7.290370076772892,0.0,127.0,216.0,0.09,0.25,317.5
mp-865179,Hf2FeOs,0.13636325971507504,15.144160510755146,0.0,94.0,196.0,0.15,0.29,242.52
mp-865490,V2CrFe,0.21125710640798706,7.348434423639102,0.0,107.0,232.0,0.68,0.3,278.2
mp-961673,TiFeTe,0.2797864537394527,7.544316549414457,0.0,80.0,153.0,0.04,0.28,204.8
mp-1018895,PrFeSi,0.14052708255416846,6.364388156200223,0.0,42.0,61.0,2.04,0.22,102.48
mp-11202,Y6FeSb2,0.14630713364471787,5.6743866817132185,0.0,35.0,59.0,0.25,0.25,87.5
mp-19421,FeWO4,0.5342803459794407,7.090244770279603,0.0,54.0,141.0,0.62,0.33,143.64
mp-21336,TaFeP,0.14664585366594407,11.640108246456196,0.0,143.0,264.0,0.1,0.27,363.22
mp-22152,NaFeAs,0.19410324245881008,4.793908386613678,0.0,32.0,50.0,0.9,0.23,78.72
mp-22701,ScFeSi,0.13951689756665347,4.848691540330628,0.0,62.0,139.0,0.62,0.31,162.44
mp-22793,AlFe3C,0.17341104708130356,6.473381427944479,0.0,98.0,230.0,0.97,0.31,256.76
mp-31185,MnAlFe2,0.1663795746323075,7.019572565285538,0.0,122.0,196.0,0.67,0.24,302.56
mp-4189,Dy6FeSb2,0.1801640555763463,8.715163774193382,0.0,35.0,60.0,0.24,0.25,87.5
mp-510624,SrFeO3,0.6235820148808287,5.3056988684625415,0.0,83.0,131.0,0.0,0.24,205.84
mp-5451,Er(FeGe)2,0.17038328912943895,8.830491042709065,0.0,51.0,126.0,0.76,0.32,134.64
mp-5529,MnFe2Si,0.15988294526845548,7.393942769723793,0.0,97.0,233.0,2.61,0.32,256.08
mp-568961,Ba(FeAs)2,0.20882032009483695,6.446281180426621,0.0,42.0,77.0,0.59,0.27,106.68
mp-636320,TiGaFe2,0.1969910165773528,7.798866002382084,0.0,100.0,190.0,0.32,0.28,256.0
mp-861953,AlFeRh2,0.1347054325552005,8.787100304790068,0.0,38.0,193.0,29.81,0.41,107.16
mp-861983,Ti2MnFe,0.17020698849289725,6.549536522803793,0.0,78.0,180.0,0.63,0.31,204.36
mp-865170,GaFeRh2,0.1428965390542674,9.955781372266408,0.0,-57.0,192.0,-6.48,0.67,-190.38
mp-865280,NbAlFe2,0.1679079732267066,7.347107032217942,0.0,124.0,212.0,0.0,0.26,312.48
mp-866051,HfFe2Sn,0.16939683382649162,11.322827521885165,0.0,107.0,179.0,0.0,0.25,267.5
mp-9381,Zr6FeTe2,0.190944595199784,7.415098713774526,0.0,60.0,114.0,0.09,0.28,153.6
mp-9884,KFeSe2,0.2337012095749796,3.770900712859419,0.0,8.0,18.0,2.2,0.31,20.96
mp-10065,UFe3B2,0.19358538383855708,11.036221026167702,0.0,132.0,233.0,0.55,0.26,332.64
mp-1029739,Li6FeN4,0.24424175742746204,2.4799371669257533,0.0,69.0,84.0,0.02,0.17,161.45999999999995
mp-10445,Sc6FeTe2,0.1941346317857757,4.9089042046840845,0.0,32.0,68.0,1.23,0.29,82.56
mp-18750,Mn(FeO2)2,0.4968106341675815,4.77457823904019,0.0,59.0,158.0,0.63,0.33,156.94
mp-18924,Sr3(FeO3)2,0.5337605861407245,4.943361645847292,0.0,55.0,109.0,0.73,0.28,140.8
mp-21113,Y(FeGe)2,0.16988194597056885,7.1079597310891485,0.0,57.0,126.0,0.38,0.3,148.20000000000005
mp-4656,Y(Al2Fe)4,0.13357415184886798,4.612205621434769,0.0,85.0,123.0,0.17,0.22,207.4
mp-541196,Ce2Fe12P7,0.18136902482679093,7.54758423829157,0.0,112.0,180.0,0.13,0.24,277.76
mp-567636,VFeSb,0.14346294918194893,7.8237252908534005,0.0,62.0,160.0,0.49,0.33,164.92000000000004
mp-774155,Li2FeO3,0.6281668601388051,3.628809075015994,0.0,63.0,99.0,0.79,0.24,156.24
mp-862691,Al2FeCo,0.15084992827688273,5.977171478082613,0.0,117.0,181.0,0.24,0.23,287.82
mp-867216,TaFeRu2,0.1236201319787054,12.301920219995141,0.0,105.0,236.0,0.08,0.31,275.1
mp-867304,BeVFe2,0.1920003220884418,6.823927950272397,0.0,110.0,222.0,0.16,0.29,283.8
mp-867507,TaGaFe2,0.1831303139670774,11.799447669082904,0.0,124.0,224.0,0.03,0.27,314.96
mp-979267,Ta2FeMo,0.1463283420235767,13.620045837210329,0.0,98.0,218.0,0.6,0.3,254.8
mp-10755,TiFeSb,0.14279689597396342,7.055233350704827,0.0,53.0,114.0,0.11,0.3,137.8
mp-12077,Y(FeB)2,0.16947493920527334,5.9674379365622645,0.0,75.0,120.0,0.25,0.24,186.0
mp-12962,Zr6FeSb2,0.12096057843147195,7.276886289223003,0.0,58.0,113.0,0.11,0.28,148.48
mp-21363,TbFeSi,0.1343122029832427,7.506788296223648,0.0,54.0,88.0,0.88,0.25,135.0
mp-21883,VGaFe2,0.1926313797461748,8.260081041652537,0.0,122.0,225.0,0.03,0.27,309.88
mp-3299,Sr(FeP)2,0.19550052751793975,5.2294993112533685,0.0,57.0,92.0,1.12,0.24,141.36
mp-4939,Dy(FeSi)2,0.16826154390583853,7.34345070105442,0.0,84.0,149.0,0.17,0.26,211.68
mp-5372,RbFeS2,0.2543008406930701,3.1586920367926523,0.0,7.0,17.0,5.57,0.31,18.34
mp-579496,Fe3PtN,0.1915959768968402,10.875201077103958,0.0,100.0,214.0,0.08,0.3,260.0
mp-626680,Fe(HO)2,0.4391245871633099,3.385648190934757,0.4583850000017264,27.0,44.0,1.68,0.25,67.5
mp-866031,Al2FeIr,0.13580521487181216,9.665034987039776,0.0,99.0,182.0,0.66,0.27,251.46
mp-866375,TiFe2Ge,0.19972684237916305,7.947002590025137,0.0,127.0,215.0,0.0,0.25,317.5
mp-1018071,MnFe2Ge,0.17818629265494992,8.5873031821058,0.0,51.0,217.0,40.98,0.39,141.78
mp-16483,BaAl9Fe2,0.13972301430837555,3.7243295083372905,0.0,45.0,79.0,0.7,0.26,113.4
mp-19097,FeBO3,0.6047509602150205,4.108906898895016,0.0,93.0,174.0,0.54,0.27,236.22
mp-19225,FeAgO2,0.4799470645391793,6.307568894088197,0.0,41.0,131.0,4.98,0.36,111.52
mp-22698,DyFeSi,0.17598792325122878,7.731271210689283,0.0,55.0,92.0,0.89,0.25,137.5
mp-30073,La(FeSb3)4,0.1183066392181886,7.8101188244117585,0.0,56.0,88.0,0.32,0.24,138.88
mp-30551,GaFeCo2,0.17704786353696056,8.691986889856317,0.0,81.0,191.0,1.87,0.31,212.22
mp-3464,FeSiRu2,0.10981100280290496,9.193008838162203,0.0,116.0,237.0,0.02,0.29,299.2800000000001
mp-5288,Y(FeSi)2,0.14956770032236896,5.6830162683780205,0.0,80.0,140.0,0.13,0.26,201.6
mp-571500,Ho(FeB)2,0.1735182706004257,8.189445893753442,0.0,77.0,100.0,0.22,0.19,183.26
mp-690544,Ga2FeO4,0.5253411617198392,5.684689240639937,0.0,74.0,173.0,0.42,0.31,193.88
mp-862669,BeFe2Si,0.1702747319563653,6.269390828054855,0.0,122.0,223.0,0.43,0.27,309.88
mp-864890,Hf2FeIr,0.14258118802711173,14.898057437222654,0.0,65.0,188.0,0.0,0.34,174.20000000000005
mp-9549,ScFeGe,0.1535804375798964,5.968421754413581,0.0,53.0,101.0,0.55,0.28,135.68
mp-10884,AlFeCo2,0.16561678757850282,7.183512710543788,0.0,98.0,188.0,1.01,0.28,250.88
mp-11038,Zr6Al2Fe,0.11593527357972633,5.979508612096697,0.6823062777749911,48.0,105.0,0.0,0.3,124.8
mp-18969,FeCO3,0.5470532212255165,3.779463104417237,0.0,-4.0,111.0,-8.63,0.52,-12.16
mp-19112,FeSO4,0.5363093054539325,3.471794177389916,0.6200458333314174,39.0,73.0,0.32,0.27,99.06
mp-20690,NdFeSi,0.20752190866567607,6.57013858893239,0.0,45.0,59.0,1.58,0.2,108.0
mp-21495,CrFeP,0.2031953563609596,6.917186606244874,0.0,143.0,238.0,0.05,0.25,357.5
mp-557403,LiFe2F6,0.16008144939291774,3.626600190170163,0.0,33.0,72.0,0.77,0.3,85.8
mp-580234,Fe3RhN,0.18485878347620224,8.264551981653039,0.0,83.0,200.0,0.16,0.32,219.12
mp-6957,Ce(FeP)2,0.16027200221524826,7.040081781783568,0.0,86.0,113.0,2.15,0.2,206.4
mp-861672,Ti2FeIr,0.16811635255747065,9.950049065017925,0.0,72.0,191.0,0.04,0.33,191.52
mp-867249,TaAlFe2,0.16952002333910032,10.2376920474426,0.0,137.0,222.0,0.0,0.24,339.76
mp-867878,AlFe2Si,0.16212246129176208,6.289050035764848,0.0,124.0,216.0,0.1,0.26,312.48
mp-11705,Dy2Fe2Si2C,0.1744796793969142,7.804425157940714,0.0,83.0,127.0,0.53,0.23,204.18
mp-19017,LiFePO4,0.5281605073077549,3.4708958823634912,0.0,48.0,91.0,0.17,0.28,122.88
mp-558674,K2NaFeF6,0.3131620163600146,2.9758159256131105,0.0,30.0,99.0,0.0,0.36,81.6
mp-643264,BaMg2FeH8,0.17379314326416934,3.310495649052089,0.0,39.0,54.0,0.18,0.21,94.38
mp-18968,Li2FeSiO4,0.4993786355659096,3.129272616958105,0.0,44.0,88.0,0.28,0.28,112.64
mp-561067,KRb2FeF6,0.3500421155008848,3.4268223606196653,0.0,23.0,49.0,0.34,0.3,59.8
mp-19127,Sr2FeMoO6,0.5764546180915937,5.465475723894391,0.7381334166671749,-15.0,161.0,0.43,0.55,-46.5
mp-1025354,Er2Fe2Si2C,0.14906151429182124,8.070122738219048,0.0,85.0,139.0,0.45,0.25,212.5
mp-19226,NaFePO4,0.5374331018738084,3.5783228299071186,0.0,42.0,84.0,0.46,0.29,108.36
mp-998964,TiGaFeCo,0.1815656586239428,7.852732359070375,0.0,116.0,204.0,0.04,0.26,292.32
mp-1025262,Sm2Fe2Si2C,0.19485406368576572,7.012711217690293,0.0,72.0,128.0,0.91,0.26,181.44
mp-644264,Ca4Mg4Fe3H22,0.14480703268438752,2.4855974917700445,0.0,44.0,61.0,0.01,0.21,106.48
mp-9211,Tm2Fe2Si2C,0.1685114178255008,8.221256348591078,0.0,86.0,136.0,0.46,0.24,213.28
mp-1025339,Y2Fe2Si2C,0.14909469323306018,5.518674272107517,0.0,83.0,126.0,0.5,0.23,204.18
mp-558078,Rb2NaFeF6,0.3519389828897249,3.778508501013152,0.0,31.0,57.0,0.0,0.27,78.74
mp-6624,Tb2Fe2Si2C,0.13344869829192668,7.583527316438486,0.0,81.0,126.0,0.61,0.24,200.88
mp-998980,TiAlFeCo,0.1707558408601182,6.4231420270626645,0.0,127.0,175.0,0.01,0.21,307.34
mp-1025316,Ho2Fe2Si2C,0.15054940510822462,7.927919170981369,0.0,84.0,129.0,0.51,0.23,206.64
mp-1025357,Lu2Fe2Si2C,0.14549856856572418,8.519183743668963,0.0,85.0,141.0,0.37,0.25,212.5
mp-18878,LiFeAs2O7,0.4984981386663735,4.028044539275526,0.0,48.0,96.0,0.34,0.29,123.84