mp_id,Formula,IPF,Density,E_above_Hull,G_VRH,K_VRH,Elastic_Anisotropy,poisson_ratio,Y_Modulus
mp-10000,Hf2S,0.136644991,11.0352934,0.0,74,131,0.35,0.26,186.48
mp-1007691,HfPt,0.125671388,16.38616637,0.0,56,179,2.11,0.36,152.32
mp-1014219,HfZn,0.150526147,11.23343336,0.0,45,105,2.65,0.31,117.9
mp-1014231,Hf2Zn,0.134077676,11.75599527,0.0,59,109,1.44,0.27,149.86
mp-1017578,HfBRh3,0.113834092,11.68366712,0.0,107,239,0.21,0.3,278.2
mp-1018153,HfAu2,0.22760481100000002,16.855453100000002,0.0,7,166,-11.64,0.48,20.72
mp-1018154,Hf2Hg,0.200685168,14.04619681,0.0,49,99,2.47,0.29,126.42
mp-1018720,HfVSi,0.10813966,8.891443343999999,0.0,67,152,10.2,0.31,175.54
mp-10245,Hf3(CuSi)4,0.120522661,9.213001863999999,0.756280818,83,153,0.34,0.27,210.82
mp-1025223,Hf4Al3,0.105035183,9.794990781000001,0.0,86,123,0.17,0.22,209.84
mp-1027,HfRh3,0.125833269,13.10440787,0.0,116,219,0.46,0.27,294.64
mp-1029834,HfMgN2,0.138841662,7.258144412999999,0.0,75,157,2.17,0.29,193.5
mp-1042,HfSi,0.094066911,9.983668416,0.0,96,153,0.42,0.24,238.08
mp-10456,HfSiPt,0.110948381,13.66020762,0.0,101,192,0.11,0.28,258.56
mp-1069,HfSi2,0.07913543099999999,7.923770341,0.0,94,132,0.31,0.21,227.48
mp-10887,HfAlCu2,0.142463521,9.277709513,0.0,52,134,0.81,0.33,138.32
mp-11387,HfGa3,0.116818003,9.296638367,0.0,71,102,0.54,0.22,173.24
mp-11441,Hf2Ga3,0.119835311,10.56714998,0.0,64,117,0.15,0.27,162.56
mp-11449,HfMn2,0.11463855699999999,11.30554976,0.0,53,192,0.57,0.37,145.22
mp-11452,HfOs,0.11122222699999999,17.69125611,0.0,117,229,0.07,0.28,299.52
mp-11453,HfPd3,0.157349911,12.76541248,0.0,85,179,0.1,0.3,221.0
mp-11454,Hf2Pd,0.130951873,13.11480867,0.0,55,137,1.0,0.32,145.2
mp-11456,HfPt3,0.138643275,19.26316891,0.0,106,233,0.08,0.3,275.6
mp-11457,HfRh,0.122313769,13.27764372,0.0,26,179,5.65,0.43,74.36
mp-11460,HfTc,0.122892158,13.17873105,0.0,76,192,0.33,0.33,202.16
mp-1168,HfTe5,0.21656507600000002,6.132194502999999,0.0,7,12,-636.38,0.26,17.64
mp-12657,HfAl2,0.09893928199999999,7.417120883,0.0,88,120,0.04,0.21,212.96
mp-12884,Hf5Te4,0.223888322,10.61996316,0.0,36,76,0.79,0.3,93.6
mp-12952,HfGaAu,0.17170595,13.301477300000002,0.0,62,131,0.16,0.3,161.2
mp-13155,Hf2Ag,0.16838063399999997,12.35497736,0.0,53,111,0.57,0.29,136.74
mp-13156,HfAg,0.20115022899999999,12.03517754,0.0,50,117,1.38,0.31,131.0
mp-1400,HfW2,0.11445983400000001,16.35379926,0.0,94,223,0.08,0.32,248.16
mp-15622,HfSe3,0.15110373400000002,6.66031974,0.0,10,16,38.73,0.24,24.8
mp-15964,Hf3Sb,0.11240674099999999,12.13120119,0.0,49,114,0.2,0.31,128.38
mp-1689,HfRe2,0.10720468,17.50430796,0.0,75,262,0.16,0.37,205.5
mp-17045,Hf3Rh5,0.124066753,13.20823629,0.0,67,194,0.31,0.35,180.9
mp-1994,HfB2,0.10542341599999999,11.1217189,0.0,242,251,0.15,0.13,546.92
mp-2025,HfBe5,0.112734943,6.08809749,0.0,120,131,0.35,0.15,276.0
mp-2027,HfCo,0.14307834,12.61270717,0.0,56,153,0.0,0.34,150.08
mp-2105,Hf3Si2,0.099590548,10.82743835,0.0,95,145,0.42,0.23,233.7
mp-21104,Hf5Sn3,0.113009666,11.68748378,0.0,47,113,0.62,0.32,124.08
mp-2126,HfIr3,0.131220778,20.07022773,0.0,149,276,0.84,0.27,378.46
mp-21340,HfGePt,0.129803266,14.41980722,0.0,79,177,0.12,0.31,206.98
mp-2180,HfSb2,0.09989513800000001,9.507866352999999,0.0,49,84,0.16,0.26,123.48
mp-22050,Hf2In5,0.135308641,9.280932966,0.0,45,72,0.15,0.24,111.6
mp-22434,HfFeP,0.14317211300000002,10.75533525,0.0,125,213,0.13,0.25,312.5
mp-2337,HfCo2,0.156544295,12.0893888,0.0,74,156,0.03,0.3,192.4
mp-2363,HfMo2,0.11864999,11.27480798,0.0,68,200,0.08,0.35,183.6
mp-27731,HfH2,0.098401911,11.46564762,0.0,34,149,2.78,0.4,95.2
mp-2802,HfRu,0.11076774199999999,13.59548912,0.0,97,197,0.31,0.29,250.26
mp-2828,HfN,0.154963491,13.68399703,0.0,156,266,0.5,0.25,390.0
mp-28919,Hf3Te2,0.195956872,9.956184756,0.0,20,27,17.03,0.21,48.4
mp-29646,HfAs2,0.087095486,9.533367619,0.0,75,115,0.17,0.23,184.5
mp-30383,Hf2Au,0.16611088699999998,14.86883816,0.0,59,134,0.51,0.31,154.58
mp-30572,Hf2Ga,0.117179243,11.88891965,0.0,63,119,0.3,0.27,160.02
mp-30581,Hf2Cu,0.132416958,12.40423969,0.0,58,123,0.31,0.3,150.8
mp-31469,Hf5CuSn3,0.120079974,11.70255254,0.0,62,118,0.14,0.28,158.72
mp-32887,HfTe2,0.19401238199999998,6.750964371,0.0,12,15,5.62,0.18,28.32
mp-352,HfO2,0.551274942,9.967760512,0.0,99,205,0.39,0.29,255.42
mp-3576,HfGaCo2,0.149788507,11.08926106,0.0,77,174,0.23,0.31,201.74
mp-3650,HfCu2Te3,0.227615543,7.568477435,0.0,23,40,0.36,0.26,57.96
mp-504659,Hf2P,0.10505701699999999,11.58532096,0.0,76,149,0.37,0.28,194.56
mp-510691,Hf5Sn4,0.113869476,11.51977858,0.0,63,112,0.14,0.26,158.76
mp-514,HfZn2,0.16645921800000002,10.32375427,0.0,58,113,0.01,0.28,148.48
mp-5221,HfAlCo2,0.139525603,9.779117756,0.0,89,172,0.05,0.28,227.84
mp-567817,HfGeTe4,0.220188264,6.835810424,0.0,11,13,4.95,0.18,25.96
mp-568002,HfI3,0.165849991,5.400571418999999,0.0,2,4,26.87,0.31,5.24
mp-568718,HfAl3,0.093523444,6.258946748,0.0,80,106,0.07,0.2,192.0
mp-722913,Hf3Zn3N,0.158748415,11.34403775,0.0,83,134,0.0,0.24,205.84
mp-753781,EuHfO3,0.494254569,8.894546506000001,0.0,107,205,0.32,0.28,273.92
mp-755352,Li2HfO3,0.5526835920000001,6.52332648,0.0,68,106,1.61,0.24,168.64
mp-819,HfCr2,0.213503683,10.50798899,0.0,68,191,0.02,0.34,182.24
mp-861978,Hf2ReIr,0.121814061,17.42825204,0.0,105,216,0.03,0.29,270.9
mp-864647,Hf2N,0.133054712,13.23693341,0.0,141,195,-3.24,0.21,341.22
mp-864916,Hf2TcRh,0.123471984,13.32236044,0.0,89,190,0.24,0.3,231.4
mp-865066,HfInRh2,0.138892101,12.09739527,0.0,145,174,-4.87,0.17,339.3
mp-865166,HfPd5,0.158829978,12.27719935,0.0,70,169,0.5,0.32,184.8
mp-865178,Hf2IrRh,0.12464155,15.42087892,0.0,16,193,-60.45,0.46,46.72
mp-865500,Na2Hf2O5,0.469728617,6.266217796,0.0,33,99,-0.96,0.35,89.1
mp-865759,YbHfRh2,0.159977703,13.01941347,0.0,42,137,0.02,0.36,114.24
mp-866108,HfZn3,0.17153224600000003,9.584429998,0.0,-6,103,-8.27,0.53,-18.36
mp-866219,HfSnRu2,0.11010550300000001,12.35904997,0.0,109,202,0.0,0.27,276.86
mp-867834,LiHfPt2,0.153268375,14.65485719,0.0,18,143,8.13,0.44,51.84
mp-976273,Hf3Ge2,0.12145391400000001,11.89511185,0.0,84,129,0.22,0.23,206.64
mp-9922,HfS3,0.12431470900000001,5.091838017,0.0,12,18,32.49,0.23,29.52
mp-9938,Hf2Si,0.10321646699999999,11.37026205,0.0,100,141,0.1,0.21,242.0
mp-9939,Hf2Ge,0.12082842,12.21434254,0.0,93,133,0.09,0.22,226.92
mp-9953,HfP,0.09039541,9.617071687000001,0.0,86,148,0.7,0.26,216.72
mp-9954,HfAs,0.094304342,10.50738497,0.0,66,127,1.17,0.28,168.96
mp-1018709,Hf2GaSb3,0.105231515,9.767269922,0.0,64,88,0.18,0.21,154.88
mp-1025167,Hf(VGa2)2,0.12792799400000002,8.568621627999999,0.0,91,131,0.37,0.22,222.04
mp-1025193,HfGa5Co,0.12011967300000001,8.553411914,0.0,47,87,0.16,0.27,119.38
mp-1029330,Hf2SeN2,0.153350472,10.18628612,0.0,82,159,0.27,0.28,209.92
mp-1029359,CaHfN2,0.206636486,7.781490043,0.0,131,171,0.09,0.19,311.78
mp-1029730,Ca4HfN4,0.20554931699999998,4.26663835,0.0,42,88,0.65,0.3,109.2
mp-10322,BaHfN2,0.253405791,7.810629748999999,0.0,44,104,1.34,0.32,116.16
mp-12533,La2Hf2O7,0.489684691,7.857130848,0.0,89,165,0.01,0.27,226.06
mp-13947,Rb2HfF6,0.300818842,4.657618969,0.0,10,22,0.36,0.3,26.0
mp-13948,Cs2HfF6,0.326427246,4.956427103,0.0,9,20,0.62,0.31,23.58
mp-15986,Hf(CuP)2,0.11172188300000001,7.941810442,0.0,65,133,0.39,0.29,167.7
mp-16501,HfAlPd2,0.134459213,10.44984751,0.0,26,163,0.83,0.42,73.84
mp-20401,HfCuSi2,0.10142584,8.09919192,0.0,87,135,0.48,0.24,215.76
mp-20730,HfCo2Sn,0.143458614,11.27775416,0.0,78,164,0.26,0.3,202.8
mp-22191,HfFeGe,0.154466239,11.12127076,0.0,91,197,0.25,0.3,236.6
mp-22315,HfCoSn,0.13137054,11.31261398,0.0,72,140,0.29,0.28,184.32
mp-22489,HfCuSi,0.121171001,9.807822548999999,0.0,85,155,0.19,0.27,215.9
mp-22637,HfNbP,0.10993765400000001,9.894290736,0.0,99,179,0.38,0.27,251.46
mp-29154,Hf2CoP,0.11938797,11.44378749,0.0,86,166,0.39,0.28,220.16
mp-29398,Cs2HfI6,0.240784656,4.629361638,0.0,4,7,0.16,0.25,10.0
mp-29419,Hf(Te2Cl3)2,0.12780476699999999,3.77054747,0.0,2,7,21.79,0.39,5.56
mp-3378,SrHfO3,0.537600255,7.508740709,0.0,91,157,0.03,0.26,229.32
mp-561442,Y2Hf2O7,0.502255595,7.366993711,0.29495625,96,171,0.03,0.26,241.92
mp-567220,Hf2SbP,0.099311665,10.20499005,0.0,70,124,0.88,0.26,176.4
mp-571619,HfAlPt,0.11427336199999999,12.571930900000002,0.0,76,163,0.42,0.3,197.6
mp-600125,HfInCu2,0.162341808,10.62059265,0.0,49,123,1.36,0.32,129.36
mp-753669,Hf(MnSn)6,0.105043421,8.947031143,0.0,72,113,0.29,0.24,178.56
mp-861875,LiHf2Re,0.137202777,12.90312181,0.0,48,136,0.09,0.34,128.64
mp-862610,LiHfIr2,0.152533683,15.39350045,0.0,67,172,0.09,0.33,178.22
mp-864715,HfInCo2,0.16424439300000002,11.38323869,0.0,76,160,0.19,0.29,196.08
mp-864734,HfInPd2,0.154999508,11.70613839,0.0,30,145,6.63,0.4,84.0
mp-864798,HfZnIr2,0.14550903199999998,16.54244346,0.0,87,213,0.56,0.32,229.68
mp-864835,Hf2CoIr,0.134267617,15.20009107,0.0,40,190,1.96,0.4,112.0
mp-865001,HfScOs2,0.118430811,14.79074753,0.0,93,201,0.0,0.3,241.8
mp-865010,HfGaRu2,0.11011687099999999,12.05564688,0.0,76,196,0.06,0.33,202.16
mp-865023,HfTc2Sb,0.122657901,12.05383818,0.0,92,204,0.09,0.3,239.2
mp-865049,HfMgPd2,0.14875883199999998,9.954600818,0.0,38,127,0.76,0.37,104.12
mp-865091,HfMnRh2,0.11284096699999999,11.46597848,0.0,68,177,0.52,0.33,180.88
mp-865094,HfNbTc2,0.123276724,11.52785011,0.0,92,216,0.34,0.31,241.04
mp-865163,HfBeRh2,0.11906674199999999,11.27534987,0.0,66,213,0.08,0.36,179.52
mp-865165,HfScCo2,0.149066807,9.108180341,0.0,65,130,0.11,0.29,167.7
mp-865174,HfCdRh2,0.169546858,12.20158825,0.0,58,163,0.81,0.34,155.44
mp-865179,Hf2FeOs,0.13636326,15.14416051,0.0,94,196,0.15,0.29,242.52
mp-865209,TmHfOs2,0.14733026300000002,16.758906099999997,0.0,87,185,0.04,0.3,226.2
mp-865785,YbHfIr2,0.162264873,17.00923078,0.0,46,159,0.84,0.37,126.04
mp-866012,Hf2ZnRe,0.132438483,14.06711296,0.0,58,160,0.83,0.34,155.44
mp-866051,HfFe2Sn,0.169396834,11.32282752,0.0,107,179,0.0,0.25,267.5
mp-866062,HfSiRu2,0.095356889,11.45137917,0.0,106,224,0.21,0.3,275.6
mp-866094,HfZnCu2,0.171373461,10.50891644,0.0,43,133,2.19,0.35,116.1
mp-866114,HfTc2W,0.121145535,14.257435599999999,0.0,119,244,0.38,0.29,307.02
mp-866221,HfSnRh2,0.12226240099999999,12.11180429,0.0,-32,179,-6.68,0.59,-101.76
mp-867119,LiHfPd2,0.163727767,10.11668538,0.0,21,117,1.01,0.41,59.22
mp-867300,Rb2Hf2O5,0.56625278,6.696301951000001,0.0,39,87,2.09,0.3,101.4
mp-9321,Ba2HfS4,0.213098908,4.933313512,0.0,30,58,0.51,0.28,76.8
mp-973890,HoHfRu2,0.133853852,12.47885918,0.0,72,168,0.46,0.31,188.64
mp-974943,HfZrTc2,0.122386736,10.93601616,0.0,67,141,0.32,0.29,172.86
mp-9755,HfGeO4,0.600267285,8.265722127,0.0,91,231,0.36,0.33,242.06
mp-977541,Hf2TcOs,0.11729662199999999,15.456555800000002,0.0,87,209,0.2,0.32,229.68
mp-977572,Hf2MnRh,0.120952045,12.89528143,0.0,78,167,0.16,0.3,202.8
mp-9801,HfCoAs,0.12637267800000002,11.54638033,0.0,92,181,0.11,0.28,235.52
mp-983358,HfAlFe2,0.165467431,9.628102428,0.0,91,166,0.01,0.27,231.14
mp-998552,BaHfO3,0.559245282,8.128152024,0.0,103,159,0.05,0.23,253.38
mp-1014251,HfZnN2,0.153088026,9.189652946,0.0,86,185,0.78,0.3,223.6
mp-1014252,Hf3ZnN,0.140599692,12.35518868,0.0,90,150,0.17,0.25,225.0
mp-1018714,HfGaCu,0.137644765,10.60248948,0.0,66,137,0.27,0.29,170.28
mp-1018726,HfVGe,0.129667916,10.07849083,0.0,78,146,2.05,0.27,198.12
mp-1029396,SrHfN2,0.21102183800000002,7.206595653,0.0,45,116,2.09,0.33,119.7
mp-10379,Hf3(Cu2Ge)2,0.14700387199999998,10.98268675,0.0,74,143,0.35,0.28,189.44
mp-10457,HfSiPd,0.11791251300000001,10.62009742,0.0,92,169,0.22,0.27,233.68
mp-11869,HfSnPd,0.116515533,10.40380937,0.0,58,122,0.18,0.3,150.8
mp-12571,HfBeSi,0.09634352199999999,8.428040308,0.0,118,148,0.13,0.18,278.48
mp-13472,HfSiRh,0.104006929,10.76733222,0.0,97,190,0.17,0.28,248.32
mp-13962,HfSiSe,0.137166455,8.568019089,0.0,56,83,6.59,0.22,136.64
mp-13963,HfSiTe,0.17728896,8.002290105,0.0,27,31,12.39,0.16,62.64
mp-13964,HfGeTe,0.20873888100000001,9.690570756,0.0,62,95,0.4,0.23,152.52
mp-15963,HfPRu,0.09877023800000001,11.37087531,0.0,95,221,0.12,0.31,248.9
mp-15987,Hf3(Cu2Si)2,0.13404263800000002,10.3019906,0.0,80,148,0.49,0.27,203.2
mp-20192,HfMnSi,0.09668187199999999,9.599635636,0.0,86,162,1.21,0.27,218.44
mp-22258,HfSiMo,0.103660642,10.04908562,0.0,104,189,0.48,0.27,264.16
mp-2960,HfSnRh,0.117414876,11.64392786,0.0,64,147,0.23,0.31,167.68
mp-31383,Hf6CoBi2,0.137081535,13.23415712,0.0,59,112,0.21,0.28,151.04
mp-34579,Na3HfF7,0.207962581,4.047250532,0.0,15,40,1.38,0.33,39.9
mp-38818,HfNbB4,0.10436339,9.032454708,0.0,219,269,0.2,0.18,516.84
mp-557938,HfVF6,0.095435584,4.077358133,0.0,33,75,6.08,0.31,86.46
mp-567441,HfIN,0.170882421,7.387807546,0.0,12,23,-127.26,0.28,30.72
mp-568346,HfBrN,0.09723618,6.767895149,0.0,18,38,51.8,0.3,46.8
mp-571367,Hf(CoSi)2,0.11494683,8.748421437000001,0.0,106,190,0.09,0.27,269.24
mp-7032,HfMoP,0.11021265,10.709118199999999,0.0,121,208,0.06,0.26,304.92
mp-754128,Ba3Hf2O7,0.542509516,7.531869925,0.0,71,124,0.23,0.26,178.92
mp-754363,Ba2HfO4,0.532396961,7.165757046,0.0,60,110,0.28,0.27,152.4
mp-7916,HfSiS,0.121311998,7.898134801,0.0,92,135,0.18,0.22,224.48
mp-7917,HfGeSe,0.154490442,9.575608495,0.0,74,112,0.18,0.23,182.04
mp-7918,HfGeS,0.139338715,8.927945661,0.0,82,127,0.12,0.24,203.36
mp-862684,LiHf2Os,0.135668418,13.175317499999998,0.0,54,147,0.05,0.34,144.72
mp-864671,HfAlRh2,0.116593965,10.87105434,0.0,131,187,-4.88,0.22,319.64
mp-864684,Hf2MoIr,0.126710339,15.13283504,0.0,81,191,0.07,0.32,213.84
mp-864877,Hf2CoRe,0.127578815,14.90188551,0.0,88,188,0.1,0.3,228.8
mp-864890,Hf2FeIr,0.142581188,14.89805744,0.0,65,188,0.0,0.34,174.2
mp-864909,HfAlRu2,0.10185674199999999,10.97775589,0.0,80,195,0.02,0.32,211.2
mp-864926,HfPaTc2,0.140979675,13.24559534,0.0,45,168,1.65,0.38,124.2
mp-865019,HfGaRh2,0.124865954,11.95377551,0.0,89,189,-5.21,0.3,231.4
mp-865020,HfMgIr2,0.137693981,14.9396073,0.0,99,185,0.08,0.27,251.46
mp-865030,HfScRu2,0.117531686,10.52003012,0.0,80,178,0.31,0.3,208.0
mp-865050,HfMgRh2,0.133977553,10.44781773,0.0,71,156,0.01,0.3,184.6
mp-865130,Hf2MoRh,0.12524376199999998,13.09614645,0.0,78,174,0.38,0.31,204.36
mp-865131,Hf2OsRh,0.116996814,15.490169199999999,0.0,46,202,2.53,0.39,127.88
mp-865138,Hf2MnIr,0.121798887,14.97080708,0.0,87,196,0.22,0.31,227.94
mp-865215,TmHfRu2,0.146681721,12.75865623,0.0,73,157,0.43,0.3,189.8
mp-865846,LuHfRu2,0.13001911900000002,13.04803148,0.0,75,163,0.38,0.3,195.0
mp-866088,Hf2CoTc,0.13206811300000001,12.87493177,0.0,82,170,0.22,0.29,211.56
mp-866117,HfZnAu2,0.218506325,14.75026669,0.0,17,137,16.17,0.44,48.96
mp-867148,LiHfRh2,0.149378906,10.67610969,0.0,57,152,0.0,0.33,151.62
mp-867327,Hf2TcRu,0.11747196800000001,13.45156018,0.0,91,194,0.33,0.3,236.6
mp-977407,Hf2ReRh,0.119739129,15.30780954,0.0,93,150,0.06,0.24,230.64
mp-983123,HfMgAu2,0.205879578,13.16185811,0.0,33,110,4.12,0.36,89.76