mp_id,Formula,IPF,Density,E_above_Hull,G_VRH,K_VRH,Elastic_Anisotropy,poisson_ratio,Y_Modulus
mp-1033,BeNi,0.144666457,6.359073839,0.0,-20,185,-8.18,0.56,-62.4
mp-1048,TiNi,0.155298135,6.412985624,0.0,38,152,10.41,0.38,104.88
mp-1050,Ni3S4,0.15823648,4.843488501,0.0,43,115,0.0,0.33,114.38
mp-1057,Al3Ni2,0.105096124,4.767798831,0.0,86,130,0.05,0.23,211.56
mp-1099,NiGe,0.132183248,7.985962531,0.0,62,136,1.47,0.3,161.2
mp-1118,SiNi2,0.123318762,7.347406529,0.0,64,193,0.25,0.35,172.8
mp-11397,Ga3Ni2,0.12624866,7.682461746,0.0,63,123,0.14,0.28,161.28
mp-11501,MnNi3,0.13809517400000001,8.498199184,0.0,93,174,1.05,0.27,236.22
mp-11506,Ni3Mo,0.148304628,9.512797012,0.0,89,230,0.53,0.33,236.74
mp-11507,Ni4Mo,0.150197545,9.438041482000001,0.0,91,223,1.03,0.32,240.24
mp-11521,ScNi,0.14488184199999998,5.419871475,0.0,46,110,0.01,0.32,121.44
mp-11526,TmNi5,0.17530152300000001,9.623696128999999,0.0,71,141,0.08,0.28,181.76
mp-11531,VNi2,0.15669562,8.166036293,0.0,86,210,1.65,0.32,227.04
mp-12798,Ni3Pt,0.14983997599999999,12.69028586,0.4506,92,206,0.69,0.31,241.04
mp-1364,YNi,0.158437363,6.058788992999999,0.0,24,78,0.7,0.36,65.28
mp-1409,TiNi3,0.164348617,7.958129734,0.0,97,192,0.1,0.28,248.32
mp-1418,FeNi3,0.17367146600000002,8.700535615,0.0,96,203,0.73,0.3,249.6
mp-1451,NbNi3,0.148317158,8.950269432999999,0.0,77,211,0.4,0.34,206.36
mp-1487,AlNi,0.123962749,5.906844497000001,0.0,72,162,1.99,0.31,188.64
mp-1553,HoNi5,0.164078021,9.452775397,0.0,71,135,0.16,0.28,181.76
mp-1567,ThNi5,0.163910804,10.39201126,0.0,64,184,0.17,0.34,171.52
mp-16514,Al3Ni5,0.133452069,6.717313046,0.0,75,167,1.36,0.31,196.5
mp-1654,CeNi2,0.187876247,9.26425288,0.0,40,121,0.16,0.35,108.0
mp-17383,Ni2Ge,0.148784704,8.846337829,0.671632917,44,168,0.27,0.38,121.44
mp-1808,Ti2Ni,0.153434978,5.725013961,0.0,36,141,0.01,0.38,99.36
mp-19009,NiO,0.537624956,6.61751945,0.0,69,204,0.27,0.35,186.3
mp-1910,CeNi5,0.16805696,8.791113258,0.0,65,151,0.17,0.31,170.3
mp-1939,ErNi2,0.177151435,10.50343161,0.0,43,109,0.51,0.33,114.38
mp-19876,InNi,0.147530876,8.211460608,0.0,50,103,0.2,0.29,129.0
mp-20112,Ni3Sn,0.14486378800000002,9.471031303,0.0,66,164,0.26,0.32,174.24
mp-20174,Ni3Sn4,0.11475692,8.453747938,0.0,47,98,0.44,0.29,121.26
mp-2033,Ni3N,0.155980006,8.019197039,0.0,73,197,0.13,0.33,194.18
mp-2056,Ni3Se2,0.18189029899999998,7.305191408,0.0,47,105,0.17,0.31,123.14
mp-2058,Ni3B,0.14322521300000002,8.260441465,0.0,82,225,0.49,0.34,219.76
mp-21008,Ni3Ge,0.152780879,9.008469811,0.0,84,175,0.44,0.29,216.72
mp-21167,Ni2P,0.122702453,7.38782024,0.0,42,194,0.08,0.4,117.6
mp-21188,CeNi,0.170829864,8.086556922,0.0,14,73,1.01,0.41,39.48
mp-2130,LuNi2,0.173012025,11.05706054,0.0,44,109,1.03,0.32,116.16
mp-2137,Mg2Ni,0.137274909,3.481328951,0.0,29,65,0.51,0.3,75.4
mp-2152,YNi5,0.162182138,7.801971357999999,0.0,72,148,0.13,0.29,185.76
mp-220,ThNi2,0.157974895,10.57057088,0.0,-1,107,-9.14,0.51,-3.02
mp-2213,FeNi,0.19076745899999997,8.452470762999999,0.0,92,187,1.35,0.29,237.36
mp-22619,NiP2,0.076264529,4.942386078,0.0,98,145,0.64,0.22,239.12
mp-2291,Si2Ni,0.074721834,4.724646067,0.0,32,150,10.32,0.4,89.6
mp-2301,NiP3,0.063271697,4.205088811,0.0,75,115,0.03,0.23,184.5
mp-2317,LaNi5,0.177898132,8.386306927,0.0,59,135,0.2,0.31,154.58
mp-23179,NiBi3,0.146126229,10.64417928,0.0,10,34,0.29,0.36,27.2
mp-2536,Ni2B,0.140302374,8.10839546,0.0,100,250,0.15,0.32,264.0
mp-2578,NiTe2,0.28711367,7.550132041,0.0,23,49,1.88,0.3,59.8
mp-2593,AlNi3,0.141287671,7.466731534,0.0,85,177,1.45,0.29,219.3
mp-2675,MgNi2,0.155350219,6.032501387999999,0.0,61,127,0.17,0.29,157.38
mp-27276,Si12Ni31,0.128750375,7.616395169,0.0,68,199,0.07,0.35,183.6
mp-2738,DyNi,0.195141022,9.239548916,0.0,22,82,1.98,0.38,60.72
mp-27396,NiCl2,0.08491666699999999,3.22131025,0.0,8,12,86.72,0.24,19.84
mp-276,TbNi2,0.159750035,9.965170311,0.0,41,163,0.26,0.38,113.16
mp-27637,NiBr2,0.102173446,4.972529745,0.0,7,17,49.11,0.31,18.34
mp-27638,NiI2,0.20441638199999998,5.584908536,0.0,6,14,35.97,0.3,15.6
mp-2838,UNi5,0.162560545,11.416683599999999,0.0,91,207,0.08,0.31,238.42
mp-30808,TbNi5,0.15358649800000002,9.268992147999999,0.0,70,133,0.15,0.28,179.2
mp-30811,Ni4W,0.14842292,11.89007174,0.0,98,234,1.0,0.32,258.72
mp-328,Zr2Ni,0.126146784,7.189329241,0.0,22,122,0.94,0.42,62.48
mp-351,SiNi,0.09783024800000001,5.981087039,0.0,82,164,1.85,0.29,211.56
mp-362,Ni3S2,0.161438716,5.961738851000001,0.0,56,127,0.17,0.31,146.72
mp-421,DyNi2,0.20516496399999998,10.08509697,0.0,41,184,0.36,0.4,114.8
mp-429,ZnNi,0.188983216,8.555705527,0.0,63,146,2.08,0.31,165.06
mp-485,ZrNi3,0.14725244099999998,8.426584388,0.0,70,170,0.13,0.32,184.8
mp-556,ZrNi,0.129591324,7.39640909,0.0,35,138,3.93,0.38,96.6
mp-559798,NiF2,0.13433076300000002,4.655344649,0.0,40,128,1.39,0.36,108.8
mp-561428,NiF3,0.131449941,4.1392466269999995,0.0,40,44,2.75,0.15,92.0
mp-567314,ErNi,0.16274381,9.731601368,0.0,26,90,0.77,0.37,71.24
mp-569196,YNi3,0.169356757,7.600999367999999,0.0,52,132,0.19,0.33,138.32
mp-622209,Al3Ni,0.096774576,4.034331927,0.0,66,113,0.06,0.26,166.32
mp-656887,Ni3O4,0.542407654,5.600675532,0.0,78,146,0.2,0.27,198.12
mp-672371,Ni3Sb,0.14569115800000002,9.623673992,0.7849825,49,165,0.28,0.36,133.28
mp-673,HoNi2,0.17920168600000003,10.34571615,0.0,42,103,0.47,0.32,110.88
mp-7226,V3Ni,0.149346799,6.898754806,0.0,93,201,0.32,0.3,241.8
mp-784631,CrNi2,0.210688084,8.620907165,0.0,112,228,1.06,0.29,288.96
mp-810,NiSb,0.11696764300000001,8.564299276,0.0,50,114,0.15,0.31,131.0
mp-828,SiNi3,0.13361648,7.87571036,0.0,103,215,0.48,0.29,265.74
mp-850,ScNi2,0.154762559,6.624090367000001,0.0,60,144,0.42,0.32,158.4
mp-853,ErNi5,0.16298686,9.544687745,0.0,72,146,0.15,0.29,185.76
mp-862604,Re3Ni,0.111733303,18.34697179,0.0,175,326,0.1,0.27,444.5
mp-867357,Tc3Ni,0.125416629,10.76360104,0.0,150,284,0.07,0.28,384.0
mp-945,NiPt,0.144789036,15.71533552,0.0,91,213,0.51,0.31,238.42
mp-1007923,CrNi3,0.19506228,8.618942228,0.26945,105,222,0.82,0.29,270.9
mp-1017556,CuNi3N,0.16282666099999998,8.116465652999999,0.0,66,196,1.03,0.35,178.2
mp-10284,YSi3Ni,0.102198576,4.690887404,0.0,86,119,0.1,0.21,208.12
mp-11194,NdMgNi4,0.20456648800000002,7.541559821,0.0,50,117,0.16,0.31,131.0
mp-11400,ScGaNi2,0.147528025,6.986625985,0.0,49,130,0.61,0.33,130.34
mp-11522,Ni3Sn,0.144938139,9.475892278,0.47384875,76,163,0.46,0.3,197.6
mp-1179,DyNi5,0.179834465,9.36010366,0.0,70,147,0.12,0.29,180.6
mp-12703,PrZnNi,0.162381146,7.489617142999999,0.0,30,77,0.38,0.33,79.8
mp-13435,CeMgNi4,0.170795115,7.685811117,0.0,54,142,0.37,0.33,143.64
mp-16349,LiNi2Ge,0.183158337,7.165161842000001,0.0,37,133,19.17,0.37,101.38
mp-171,VNi3,0.158042088,8.437749118,0.0,101,213,0.86,0.3,262.6
mp-19895,NiSb2,0.100981029,7.811226102000001,0.0,42,88,0.96,0.29,108.36
mp-21272,ErNiSb,0.138017773,9.191794377,0.0,59,82,0.1,0.21,142.78
mp-22490,Sc3(NiGe)4,0.137417663,6.507737388,0.0,75,127,0.08,0.25,187.5
mp-22786,ThNiSn,0.131361908,9.532559885,0.0,48,98,0.97,0.29,123.84
mp-2370,PrNi5,0.158990655,8.509952411,0.0,62,151,0.17,0.32,163.68
mp-24719,NiH,0.132722559,7.7516498689999995,0.0,68,199,0.14,0.35,183.6
mp-29658,ZrNiH3,0.108895997,6.3405863039999995,0.0,66,151,0.52,0.31,172.92
mp-30182,ThAl3Ni2,0.126079578,7.187351802,0.0,74,128,0.11,0.26,186.48
mp-3250,Ni2SbTe2,0.224795553,7.716517061,0.0,20,41,2.14,0.29,51.6
mp-3289,LaMgNi4,0.179350545,7.317757437000001,0.0,43,106,0.19,0.32,113.52
mp-3363,Sc2Ni2Sn,0.135412126,6.3211458910000005,0.0,35,102,1.3,0.35,94.5
mp-3469,ZrNi2Sb,0.131035296,8.502891708,0.0,60,145,0.1,0.32,158.4
mp-4054,YAl3Ni,0.116807076,4.314691029,0.0,60,93,0.22,0.24,148.8
mp-4302,Nd(NiGe)2,0.18786750800000002,7.967548175,0.0,52,102,0.41,0.28,133.12
mp-4817,CeAl5Ni2,0.11368554300000001,4.901765359,0.0,61,94,0.31,0.23,150.06
mp-7707,Zr(SiNi)2,0.106909749,6.37088899,0.0,82,171,0.16,0.29,211.56
mp-774,CaNi5,0.17899908899999997,6.7475754939999995,0.0,65,125,0.11,0.28,166.4
mp-815,GaNi3,0.15177265199999998,8.937908756,0.0,77,180,1.12,0.31,201.74
mp-865093,TiZnNi2,0.17505037699999998,7.587307353,0.0,50,169,3.21,0.37,137.0
mp-867252,LiZn2Ni,0.20624013,6.431958483,0.0,35,86,6.85,0.32,92.4
mp-924128,HfNiSn,0.11661828800000001,10.34045801,0.0,80,105,0.01,0.19,190.4
mp-1024955,PrNiSb,0.130807855,7.686397792,0.0,35,82,0.34,0.31,91.7
mp-1025393,TmSi2Ni,0.13396914699999998,7.413446122000001,0.0,64,121,0.31,0.28,163.84
mp-1025504,TmGa2Ni,0.160042093,8.97067347,0.0,55,99,0.67,0.27,139.7
mp-11520,YNiSb,0.136665323,6.942946552,0.0,55,94,0.18,0.25,137.5
mp-12382,ErSi2Ni,0.118057669,7.283245935,0.0,65,119,0.33,0.27,165.1
mp-12520,SrNi2Ge,0.192598369,5.9430428189999995,0.0,32,72,2.27,0.31,83.84
mp-13416,Sc2InNi2,0.147162988,6.207417884,0.0,44,101,0.11,0.31,115.28
mp-13536,TbZnNi,0.157504944,8.69588392,0.0,33,74,0.26,0.31,86.46
mp-13915,LiNi2Sn,0.16435215,7.500204737000001,0.0,28,108,14.53,0.38,77.28
mp-16356,TiNiGe,0.147560955,7.085254895,0.0,83,157,0.18,0.27,210.82
mp-16503,HoAl2Ni,0.127610287,6.536177381,0.0,56,94,0.59,0.25,140.0
mp-16517,TmAl2Ni,0.14118819400000002,6.7548522470000005,0.0,60,93,0.48,0.23,147.6
mp-19331,MnNiO3,0.5660066570000001,5.430002812000001,0.0,89,175,0.02,0.28,227.84
mp-19448,Ni3TeO6,0.5997120220000001,6.177587226,0.0,78,157,0.05,0.29,201.24
mp-20185,LuNiSb,0.135283025,9.626709759,0.0,62,80,0.05,0.19,147.56
mp-20557,YSiNi,0.13754354400000002,5.676460122000001,0.0,62,112,0.38,0.27,157.48
mp-20744,ZrInNi2,0.151599598,8.536058956,0.0,51,139,0.58,0.34,136.68
mp-20952,TiNiSb,0.127543404,7.238841547000001,0.0,57,128,0.0,0.31,149.34
mp-22639,U(NiP)2,0.128065826,10.00807967,0.0,54,190,1.36,0.37,147.96
mp-27409,RbNiBr3,0.195813548,4.231861124,0.0,4,17,12.55,0.4,11.2
mp-29153,Zr2NiP,0.11436099300000001,6.691111905,0.0,83,152,0.16,0.27,210.82
mp-2949,Ca(NiGe)2,0.160044698,5.992976475,0.0,40,90,0.4,0.31,104.8
mp-30183,ZrAl5Ni2,0.10603612,4.838724775,0.0,84,120,0.09,0.22,204.96
mp-3432,ScNiSb,0.12263807199999999,6.561426054,0.0,66,104,0.01,0.24,163.68
mp-3433,YMgNi4,0.166547387,6.793728184,0.0,56,123,0.14,0.3,145.6
mp-3602,YAl4Ni,0.11131015,4.084857437,0.0,59,92,0.28,0.24,146.32
mp-37614,Al2NiO4,0.56694978,4.400829016,0.0,109,203,0.32,0.27,276.86
mp-4195,Tm(NiGe)2,0.159795673,9.004141945,0.0,48,120,0.33,0.32,126.72
mp-5215,NdNiGe2,0.18829257800000002,7.648596593,0.0,49,84,0.21,0.25,122.5
mp-5292,Ca(SiNi)2,0.14236169699999998,4.624874623999999,0.0,56,104,0.25,0.27,142.24
mp-569385,DyAl2Ni,0.148388394,6.560884729,0.0,55,96,0.51,0.26,138.6
mp-569523,Y2InNi2,0.157988097,6.6001186270000005,0.0,38,77,0.62,0.29,98.04
mp-569931,Pr(NiP)2,0.129489766,7.042607921,0.0,79,111,0.48,0.21,191.18
mp-570272,Tb2Mg3Ni2,0.12753218,5.573214205,0.0,28,67,-2.67,0.32,73.92
mp-5748,HfAlNi2,0.12898172300000002,9.53065434,0.0,49,164,0.12,0.36,133.28
mp-5916,Yb(SiNi)2,0.13336295199999998,7.637768457999999,0.0,56,94,0.11,0.25,140.0
mp-672299,YInNi,0.160878102,7.089476145,0.0,34,86,0.69,0.32,89.76
mp-7186,NdAl3Ni2,0.160596068,5.719691776,0.0,63,121,0.24,0.28,161.28
mp-865529,Ti2NiIr,0.152133415,10.01044669,0.0,12,195,-16.34,0.47,35.28
mp-866224,Be2NiPt,0.136589126,11.00243832,0.0,65,208,1.45,0.36,176.8
mp-867271,Be2CoNi,0.15245404199999998,6.457584805,0.0,125,192,0.12,0.23,307.5
mp-867775,Al2NiRu,0.107647119,6.966921575,0.0,87,179,0.56,0.29,224.46
mp-8771,Lu2(NiB2)3,0.13590908599999998,8.757489438,0.0,139,194,0.06,0.21,336.38
mp-8969,Mg2Ni3P,0.14343005,5.477005909,0.0,69,130,0.18,0.27,175.26
mp-924129,ZrNiSn,0.115478361,7.623580577999999,0.0,73,152,0.01,0.29,188.34
mp-972406,YbSi2Ni,0.126365067,7.233186695,0.0,57,87,0.33,0.23,140.22
mp-1018647,YbNiH3,0.168258436,9.326303556000001,0.0,56,91,0.01,0.25,140.0
mp-10240,ScNiP,0.126125278,5.322018245,0.0,92,152,0.05,0.25,230.0
mp-11285,Ca3(GaNi)4,0.161901043,5.201688401,0.0,35,77,0.0,0.3,91.0
mp-13074,LuNiPb,0.19415185899999998,12.02143317,0.0,45,89,0.54,0.29,116.1
mp-13094,YAl2Ni,0.125454953,4.672976145,0.0,57,91,0.45,0.24,141.36
mp-13535,Tb2ZnNi2,0.152412942,8.941626858,0.0,32,96,0.5,0.35,86.4
mp-20708,In2Ni3S2,0.15321805900000002,6.731043906,0.0,33,72,0.51,0.3,85.8
mp-20956,Gd(SiNi)2,0.131613811,7.289806314,0.0,73,132,0.33,0.27,185.42
mp-27388,Ba(SiNi)2,0.186331635,5.1798477489999994,0.0,36,52,2.51,0.22,87.84
mp-30452,DyNiBi,0.181326176,10.44418369,0.0,49,80,0.2,0.25,122.5
mp-30805,SrNiSn3,0.146996846,6.6233703870000005,0.0,26,56,0.08,0.3,67.6
mp-32311,Re2NiO8,0.37681208299999996,4.875035907,0.0,14,15,4.73,0.15,32.2
mp-3398,Ho2Ni2Pb,0.18057549399999998,10.45481437,0.0,28,68,2.41,0.32,73.92
mp-3679,NiSbS,0.132990064,6.755619632,0.0,51,96,0.14,0.27,129.54
mp-3944,ZrAlNi2,0.12769519699999998,6.7991405689999995,0.0,39,149,0.0,0.38,107.64
mp-4064,Ca(NiP)2,0.15330000400000002,5.08015595,0.0,74,114,0.24,0.23,182.04
mp-4634,LaNi4B,0.175744543,8.118178597,0.0,64,133,0.07,0.29,165.12
mp-4720,Si2Ni6B,0.127575422,7.529756252,0.0,77,210,1.79,0.34,206.36
mp-4881,Er(SiNi)2,0.125012278,7.614693634,0.0,72,129,0.2,0.27,182.88
mp-4989,CrNiAs,0.157697695,7.617337309,0.0,61,129,0.08,0.3,158.6
mp-5063,YAl3Ni2,0.125097772,4.984204045,0.0,68,113,0.07,0.25,170.0
mp-555321,BaNiF4,0.233515499,4.923117647,0.0,27,59,0.66,0.3,70.2
mp-568269,TmNiBi,0.178438172,10.92530211,0.0,51,84,0.1,0.25,127.5
mp-569697,Ce(NiP)2,0.136705248,7.204626915,0.0,67,115,1.49,0.25,167.5
mp-569974,Nd(NiP)2,0.18170767,7.2314278960000005,0.0,82,128,0.38,0.24,203.36
mp-571147,Hf(SiNi)2,0.106785765,8.567434555,0.0,76,174,0.22,0.31,199.12
mp-571420,Ba(NiP2)2,0.159066921,4.990560147,0.0,40,100,1.45,0.33,106.4
mp-574235,Yb(NiGe)2,0.154982363,8.931215123,0.0,36,91,0.42,0.33,95.76
mp-637771,ZrInNi4,0.159583051,9.032171409,0.0,65,161,0.3,0.32,171.6
mp-7187,TiAlNi2,0.142427799,6.253223227,0.0,59,162,1.72,0.34,158.12
mp-864807,HfZnNi2,0.158155971,10.75546822,0.0,49,151,0.67,0.35,132.3
mp-865092,MgGaNi2,0.152931619,6.797844448999999,0.0,35,124,9.67,0.37,95.9
mp-865728,Ti2ReNi,0.14519036,9.791110986,0.0,79,192,0.11,0.32,208.56
mp-865878,Ti2TcNi,0.151356152,7.393032894,0.0,72,177,0.05,0.32,190.08
mp-867223,LiGa2Ni,0.161687487,6.532735636,0.0,26,87,45.93,0.36,70.72
mp-8786,Zr2NiAs2,0.10608709300000001,7.300473773999999,0.0,68,139,0.4,0.29,175.44
mp-983587,Ac2NiGe,0.184446739,8.801857855,0.0,14,55,2.4,0.38,38.64
mp-1017554,CdNi3N,0.202682587,8.803847637,0.0,68,182,0.03,0.33,180.88
mp-10181,LiSiNi2,0.167324833,5.957779519,0.0,43,149,14.89,0.37,117.82
mp-1025552,LuGa2Ni,0.143455537,9.281117359,0.0,57,89,0.76,0.24,141.36
mp-10797,CaSiNi2,0.151033277,4.535499724,0.0,39,83,1.51,0.3,101.4
mp-10846,NiAsSe,0.14353308,6.978499255,0.0,54,101,0.18,0.27,137.16
mp-11621,ZnNiSb,0.132143025,7.765793122000001,0.0,35,102,0.16,0.35,94.5
mp-11879,BaNiSn3,0.173258069,6.98600321,0.0,32,56,0.03,0.26,80.64
mp-12100,Lu(SiNi)2,0.122639532,7.961147779,0.0,68,122,0.21,0.26,171.36
mp-12782,YbAl2Ni,0.133833192,6.607252982,0.0,43,58,1.02,0.2,103.2
mp-13512,CaNiGe2,0.156743649,5.416259383,0.0,36,75,0.31,0.3,93.6
mp-14336,Cs2Ni3Se4,0.288036853,5.019431054,0.0,4,15,-23.61,0.39,11.12
mp-15779,Mg2SiNi3,0.13934627800000002,5.278673282,0.0,74,127,0.22,0.26,186.48
mp-19138,BaNiO3,0.595475842,5.929744808,0.139646,24,85,15.41,0.37,65.76
mp-19149,NaNiO2,0.60897643,4.599449254,0.0,68,100,0.3,0.22,165.92
mp-19167,Rb2NiO2,0.481765603,3.6863322739999997,0.0,12,25,0.53,0.3,31.2
mp-19241,BaNiO3,0.595357742,5.928568768,0.0,24,83,14.49,0.37,65.76
mp-19252,K2NiO2,0.46169444299999995,2.7044891960000004,0.0,15,29,0.61,0.28,38.4
mp-20007,MnNiGe,0.120816793,7.865308145,0.0,60,144,0.7,0.32,158.4
mp-20479,SrIn4Ni,0.173177654,6.897448923,0.0,27,47,0.3,0.26,68.04
mp-21415,Dy(NiGe)2,0.16482194,8.762782000000001,0.0,49,113,0.24,0.31,128.38
mp-22426,ScSiNi,0.117200625,4.873667748,0.0,72,132,0.21,0.27,182.88
mp-3053,DyAlNi,0.166586347,7.589343417,0.0,33,100,2.65,0.35,89.1
mp-3264,Th(NiGe)2,0.146858864,9.654297248999999,0.0,37,126,1.35,0.37,101.38
mp-3716,TbNiSb,0.12461708,8.720657909,0.0,54,58,0.22,0.14,123.12
mp-4007,Nd(SiNi)2,0.170361619,6.695876706,0.0,70,121,0.25,0.26,176.4
mp-4174,HoNiSb,0.139032833,9.042786065,0.0,56,76,0.15,0.2,134.4
mp-4291,Ho(NiGe)2,0.14846808,8.825428296,0.0,50,123,0.26,0.32,132.0
mp-4466,Tb(SiNi)2,0.115237035,7.334386993,0.0,72,110,0.25,0.23,177.12
mp-4768,Eu(SiNi)2,0.150469231,6.820487608,0.0,55,104,0.42,0.27,139.7
mp-556417,Rb2NiF6,0.30758545600000003,3.594560547,0.0,9,14,0.43,0.23,22.14
mp-5918,Hf2NiP,0.11585780400000001,11.39762285,0.0,94,167,0.23,0.26,236.88
mp-600124,MnNiSb,0.10162590699999999,7.589432123,0.0,46,109,0.16,0.32,121.44
mp-7632,NiMoP,0.116975732,8.299220613,0.0,95,241,0.1,0.33,252.7
mp-8307,CaNi4B,0.176970006,6.31928365,0.0,61,133,0.1,0.3,158.6
mp-8308,Ca3Ni7B2,0.19197247899999997,5.669552607000001,0.0,54,103,0.22,0.28,138.24
mp-862367,Sc2NiRu,0.133596167,6.356180597000001,0.0,57,124,0.0,0.3,148.2
mp-862424,Sc2TcNi,0.13985689099999998,6.2161655929999995,0.0,54,118,0.02,0.3,140.4
mp-864654,Zn2NiRh,0.17581756199999998,9.34195584,0.0,57,156,2.05,0.34,152.76
mp-866037,GaNiRh2,0.129968303,10.30421391,0.0,57,200,5.95,0.37,156.18
mp-924130,TiNiSn,0.129114091,7.230096923,0.0,68,122,0.01,0.27,172.72
mp-10208,NiMoP2,0.092858161,6.624752976,0.0,104,189,0.31,0.27,264.16
mp-1024983,ErInNi4,0.171831719,9.933670764,0.0,56,147,0.25,0.33,148.96
mp-1025413,ThSi2Ni,0.117941733,8.192189855,0.0,77,139,0.26,0.27,195.58
mp-10446,Sc6NiTe2,0.18986613100000002,4.940822777,0.0,30,73,1.8,0.32,79.2
mp-10847,NiSbSe,0.14736407199999998,7.51140022,0.0,47,90,0.14,0.28,120.32
mp-11533,ZrZnNi4,0.158045982,8.345601092999999,0.0,71,167,0.21,0.31,186.02
mp-13436,PrMgNi4,0.158196488,7.275103142000001,0.0,47,126,0.16,0.33,125.02
mp-13993,Ti3NiS6,0.15685253400000002,3.8664612000000003,0.0,46,72,0.48,0.23,113.16
mp-15297,Hf6NiSb2,0.11738917900000001,12.20987986,0.0,71,126,0.13,0.26,178.92
mp-19384,Ni(AsO3)2,0.591617935,5.501470375,0.0,81,148,0.7,0.27,205.74
mp-20338,CeAl3Ni2,0.128324884,5.752872865,0.0,72,121,0.08,0.25,180.0
mp-20697,ZrNiSb,0.124344506,8.30210439,0.0,54,135,0.29,0.32,142.56
mp-20949,MnSiNi,0.097539263,6.560971815,0.0,86,165,0.46,0.28,220.16
mp-22056,YIn2Ni,0.15903689199999999,7.452620133,0.0,41,79,0.87,0.28,104.96
mp-23486,RbNiCl3,0.209312369,3.246404899,0.0,5,18,10.05,0.37,13.7
mp-28927,Ba(NiP2)2,0.160245812,5.027546623,0.425222857,-4,98,-9.24,0.52,-12.16
mp-2909,HoAlNi,0.1434322,7.740538637999999,0.0,30,73,5.0,0.32,79.2
mp-2924,Ho(SiNi)2,0.12712581,7.569765205,0.0,72,144,0.19,0.29,185.76
mp-30457,LuNiBi,0.16073238199999998,11.205767300000002,0.0,50,78,0.09,0.23,123.0
mp-30657,TiGaNi2,0.153381692,7.652008774,0.0,40,166,7.98,0.39,111.2
mp-30750,CeAl4Ni,0.114471701,4.807902373,0.0,65,98,0.26,0.23,159.9
mp-3274,NiGePd,0.147503332,9.471640751,0.0,49,157,1.0,0.36,133.28
mp-3455,Er(NiP)2,0.134961933,8.293440482000001,0.0,85,139,0.31,0.25,212.5
mp-3587,Sc(SiNi)2,0.10929185699999999,5.206027766,0.0,62,149,0.22,0.32,163.68
mp-3758,Eu(NiP)2,0.162120975,7.432515491,0.0,75,122,0.31,0.24,186.0
mp-4692,Dy(SiNi)2,0.144098171,7.46352315,0.0,74,121,0.21,0.25,185.0
mp-505820,NiPS,0.12373270199999999,4.765128676000001,0.0,61,118,0.07,0.28,156.16
mp-5176,Y(SiNi)2,0.12460683199999999,5.761594106,0.0,70,136,0.22,0.28,179.2
mp-5383,NdNiC2,0.199520705,7.069543236,0.0,86,172,0.34,0.29,221.88
mp-568931,YbNiSb,0.145421271,9.053953926,0.0,33,69,1.4,0.29,85.14
mp-7080,Li5(NiN)3,0.18358819399999998,3.27918267,0.0,47,79,5.04,0.25,117.5
mp-7559,YNi4B,0.158135955,7.449817761,0.0,75,156,0.05,0.29,193.5
mp-8310,Li(NiP)2,0.120642811,4.758449645,0.0,41,117,1.33,0.34,109.88
mp-8311,Si3NiP4,0.045779611,3.138289397,0.0,61,105,0.35,0.26,153.72
mp-862368,Sc2NiPt,0.141624413,8.341665457000001,0.0,46,125,0.09,0.34,123.28
mp-864895,Be2NiRh,0.130729798,7.571426865,0.0,107,194,0.0,0.27,271.78
mp-865229,Be2NiIr,0.132631361,11.18965874,0.0,114,216,0.0,0.27,289.56
mp-867812,LiAlNi2,0.168325074,5.466499821,0.0,-33,120,-7.03,0.65,-108.9
mp-1018139,HoNiBi,0.163815292,10.63319838,0.0,50,85,0.13,0.26,126.0
mp-1025263,Ti2NiS4,0.161799053,4.152401887,0.0,55,83,0.51,0.23,135.3
mp-11351,CeAlNi,0.149162666,6.768834327,0.0,45,98,0.3,0.3,117.0
mp-11401,ScGa2Ni,0.131779211,6.425759648,0.0,60,107,0.64,0.26,151.2
mp-11444,YGa2Ni,0.144409498,6.824061095,0.0,49,93,0.77,0.28,125.44
mp-12965,ErNi4B,0.15872261099999999,9.335612084,0.0,78,160,0.02,0.29,201.24