mp_id,Formula,IPF,Density,E_above_Hull,G_VRH,K_VRH,Elastic_Anisotropy,poisson_ratio,Y_Modulus,PC 1,PC 2,PC 3
mp-29964,La3(TaN3)2,0.18451859399999998,8.48983442,0.0,87.0,167.0,0.22,0.28,222.72,-0.33330207208232204,5.318490475817718,4.039046166520559
mp-3033,RbTaO3,0.541333927,6.06397592,0.0,27.0,69.0,1.32,0.33,71.82,1.7350876373064263,0.17139286865620515,0.29397977911240053
mp-3203,NdTaO4,0.5480244670000001,7.951862761,0.0,66.0,146.0,0.3,0.3,171.6,0.5441780401952753,1.1354818807367661,-0.8199087089169559
mp-3444,ErTaO4,0.544447452,9.223589274,0.0,67.0,134.0,0.86,0.28,171.52,0.20699162409416638,0.9151250730762315,-0.7502832230599088
mp-5377,YTaO4,0.533061505,7.289825658,0.0,66.0,182.0,0.54,0.34,176.88,0.7099268331311158,1.1424529514568864,-0.7662889661078459
mp-558781,ScTaO4,0.539271821,6.702910077,0.0,72.0,177.0,0.41,0.32,190.08,0.6786605282006917,0.8768654075624241,-0.6848727339670017
mp-561242,TaAgS3,0.171357998,6.742514042000001,0.20842399999999997,32.0,77.0,6.27,0.32,84.48,-0.0671714323285977,0.07658560320981667,-1.582789583355363
mp-8436,Ta2PdSe6,0.145028165,6.811193608,0.0,9.0,18.0,40.0,0.28,23.04,0.6281576248077347,-0.9745844220338653,-0.19303911290143128
mp-865234,TaZnRu2,0.127242995,12.49589479,0.0,84.0,226.0,0.55,0.34,225.12,-0.4273720901717381,-0.3185780501273165,-0.20455582802303526
mp-866072,MgTaRh2,0.134668575,10.89401387,0.0,-57.0,186.0,-6.26,0.67,-190.38,-0.5328918463607709,1.228456897805294,0.6429963836265603
mp-866116,HoTaRu2,0.135618681,13.05347686,0.0,76.0,183.0,0.55,0.32,200.64,-0.9500219376745764,-0.515373890909401,0.04502422142351811
mp-866125,LuTaRu2,0.131220885,13.61623735,0.0,87.0,172.0,0.4,0.28,222.72,-0.5827601479391862,-0.37421463799191534,-0.0038979414995126646
mp-866299,ErTaOs2,0.134839626,17.28238723,0.0,93.0,221.0,0.12,0.32,245.52,-1.0878830539454318,-0.48208232258188083,-0.6054539432130008
mp-867114,TaBeRu2,0.101066376,11.77313673,0.0,83.0,221.0,0.0,0.33,220.78,-0.41670314680049925,-0.33105588079576204,-0.21149648928731857
mp-867120,TaMn2Al,0.109004103,9.78166732,0.0,107.0,201.0,0.29,0.27,271.78,-0.2193692973144718,-0.23340860661871807,-0.31932919544932037
mp-867221,Ce3(TaN3)2,0.16762686599999999,9.019804019,0.0,84.0,167.0,0.21,0.29,216.72,-1.948186250371096,4.205886333920514,4.82744912112991
mp-867771,TaCuRh2,0.138570357,12.8186545,0.0,51.0,224.0,8.92,0.39,141.78,-0.36516453460740145,-0.24226015377001517,-0.6269390521801068
mp-867821,TaTiMn2,0.129889258,10.17393399,0.0,89.0,217.0,0.63,0.32,234.96,-0.01003673345903802,-0.2580609190580567,-0.5085329406089518
mp-867846,TaTiRe2,0.124749231,15.71075605,0.0,117.0,263.0,0.03,0.31,306.54,-0.20374368566879142,-0.03704820235890066,-0.671300061957188
mp-867897,ScTaRu2,0.118131717,11.00108297,0.0,101.0,205.0,0.27,0.29,260.58,-0.49419529572148035,-0.32371674593418837,-0.11840200246397367
mp-9295,TaCu3Te4,0.21188922699999999,6.822485039,0.0,20.0,29.0,0.0,0.22,48.8,-0.3809237539442676,-1.2470260677190679,-1.3783827239075273
mp-972209,Ta2TcW,0.123254222,16.03682564,0.0,119.0,250.0,0.14,0.3,309.4,0.23163119336186244,-0.21185411375212493,-0.1901970766170269
mp-977382,Ta2VRu,0.123114109,13.47347638,0.0,84.0,232.0,0.23,0.34,225.12,-0.3592271757295799,-0.12898610305576957,-0.13370688860554647
mp-4574,YbTaO4,0.52979939,8.933639168,0.0,37.0,59.0,1.63,0.24,91.76,-0.021613184550493273,0.9055603532403634,-0.38513509613993446
mp-505206,Ta3SiTe6,0.22235902300000002,7.964755741,0.0,15.0,21.0,15.92,0.22,36.6,-0.6917726251551745,-0.7909364341355484,-0.3188442494485848
mp-866071,MgTaOs2,0.120605727,15.5829277,0.0,99.0,229.0,0.36,0.31,259.38,-0.7571380340091488,0.8083789056949945,0.3232814977963731
mp-12385,Ba2YTaO6,0.546651847,6.839389213,0.0,75.0,134.0,0.16,0.26,189.0,2.9246860797673984,3.86753410528741,-3.1322090927601036
mp-12427,Sr2TaGaO6,0.5817507510000001,6.841673429,0.0,92.0,151.0,0.12,0.25,230.0,1.961651775991883,2.932012807229818,-0.8407275416249439
mp-23089,SrTa2Bi2O9,0.493154489,8.370517286,0.0,61.0,83.0,0.3,0.21,147.62,2.120262516089021,3.371571856568887,-2.1403886426153216
mp-557713,Ba2LaTaO6,0.52489922,6.914650475,0.0104175,48.0,121.0,0.34,0.33,127.68,2.8707421593393474,4.240599101031804,-2.6150602543116954
mp-756088,SrTaNO2,0.443914935,7.794590137,0.2698215,83.0,150.0,0.27,0.27,210.82,0.7470674550252295,1.789625935434873,0.20667459762430246
mp-1014229,Ti2Zn,0.163918593,5.462441843,0.0,47.0,96.0,6.32,0.29,121.26,0.14764399208725323,-0.28553663102714927,-0.4634730213300983
mp-1014230,TiZn,0.174651145,6.036542541,0.0,56.0,115.0,2.85,0.29,144.48,0.014920331241835111,-0.24959777811879158,-0.27829160566210714
mp-1017985,TiAg,0.22601428,7.340358574,0.0,35.0,111.0,0.8,0.36,95.2,0.026307699570762656,0.02351351288070435,-0.9597186634007179
mp-1018028,TiS,0.18213033,4.44203401,0.0,101.0,141.0,0.44,0.21,244.42,0.09094929960874189,-0.25005745762390374,-0.513115434111285
mp-1018123,TiAu2,0.248079172,14.16267401,0.0,-17.0,130.0,-8.12,0.57,-53.38,-0.09003186811276401,-0.49114093379665347,-0.6962234288418782
mp-1018124,Ti2Rh,0.148441114,7.0886604539999984,0.0,82.0,157.0,0.12,0.28,209.92,0.12150195446142291,-0.2541870279801138,-0.539111636732824
mp-1025170,Ti3B4,0.130993011,4.557547484,0.0,213.0,225.0,0.12,0.14,485.64,-0.12674228464384216,0.09438203887443883,-0.2622153334501761
mp-1089,TiIr3,0.14077963300000002,17.77477071,0.0,162.0,294.0,0.98,0.27,411.48,-0.31205556751376823,-0.5628772264657632,-0.4204986417242784
mp-1145,TiB2,0.12308493699999999,4.487425091,0.0,253.0,253.0,0.14,0.13,571.78,-0.17174212536186292,-0.02300794521294062,-0.06422911527530131
mp-1147,Ti3O5,0.560023154,4.187247707,0.0,76.0,171.0,0.5,0.31,199.12,1.5026206353034455,0.9223270636142145,-1.4809599984398203
mp-11765,Ti5Se4,0.183564352,5.571714611,0.0,46.0,84.0,0.49,0.27,116.84,1.159672319952689,-0.9895466569096368,-0.9977567679485329
mp-1215,Ti2O,0.366216825,5.012926887,0.0,106.0,184.0,0.54,0.26,267.12,0.41912260805670254,-0.006918407115800489,-0.5965854318378854
mp-1235,TiIr,0.147451259,13.17172,0.0,81.0,228.0,0.18,0.34,217.08,-0.07154828543062089,-0.3291428322332784,-0.2979033661990315
mp-12546,TiCu3,0.18377057800000002,7.648117752,0.0,51.0,140.0,0.59,0.34,136.68,-0.17270905139624243,-0.7656466248967979,-1.32303333510692
mp-12635,TiAu4,0.264261144,15.86669066,0.0,39.0,144.0,1.78,0.38,107.64,-0.22876909183648095,-0.7700062324762709,-1.1558411292473483
mp-12648,Ti2Be17,0.11873385800000001,2.47886162,0.146208947,143.0,127.0,0.01,0.09,311.74,-0.21154436050757167,-1.0948140404188134,-1.2484382984341005
mp-13164,Ti2Pd,0.158675711,6.905202131,0.0,62.0,142.0,0.74,0.31,162.44,0.19847107115309073,-0.35714612249453914,-0.5753174417811703
mp-1412,Ti3Sb,0.143039566,6.204950157000001,0.0,25.0,120.0,3.78,0.4,70.0,0.15769186815360903,-0.36085378438319715,-0.6575406932689631
mp-15669,Ti3Te4,0.25880676199999997,6.386267556,0.0,38.0,60.0,0.85,0.24,94.24,0.3261489386464903,-0.9319503416057363,-0.868776145642987
mp-1709,U2Ti,0.19312379,15.63359699,0.0,119.0,130.0,0.13,0.15,273.7,-0.5832322305075367,-0.14106199149096998,0.8450566456667038
mp-17413,Ti3Rh5,0.13918081,9.261614827999999,0.0,71.0,205.0,0.53,0.34,190.28,0.014517367327050765,-0.3140160407073517,-1.1935910229145132
mp-1786,Ti3Au,0.19289837199999998,8.460278693,0.0,71.0,139.0,0.16,0.28,181.76,0.2447840654399309,-0.42358599027356036,-0.836777409975125
mp-1822,TiAs,0.10853808699999999,5.836287445,0.0,72.0,119.0,0.77,0.25,180.0,0.09941234405063218,-0.3068676291822871,-0.336097032129434
mp-1823,Ti3Al,0.135765343,4.248868557,0.0,61.0,115.0,0.13,0.27,154.94,0.23754377429177384,-0.295439881402771,-0.6029462302807486
mp-1907,TiTe2,0.24560134,5.967718131,0.0,12.0,18.0,5.07,0.21,29.04,0.05470348628330315,-0.5361741354530284,-0.3675095213717063
mp-1949,TiMn2,0.128328299,6.901373875,0.0,61.0,210.0,0.23,0.37,167.14,0.07745056958827023,-0.38853962399941383,-0.5298097220109493
mp-1953,TiAl,0.11955719199999999,3.833901552,0.0,70.0,115.0,0.98,0.25,175.0,-0.027903547399062485,-0.2235621755860552,-0.23258339894476712
mp-20327,TiP2,0.093057545,4.262085969,0.0,91.0,131.0,0.19,0.22,222.04,-0.3771939628490331,-0.2714125355127633,0.09359687487480338
mp-20382,Ti6Sn5,0.128118129,6.81339155,0.0,55.0,105.0,0.1,0.28,140.8,0.8953593628446743,-0.7703294059026561,-2.1860244214878377
mp-2078,TiCu,0.170493956,6.44093626,0.0,62.0,130.0,0.87,0.3,161.2,-0.025099446724778752,-0.39673263171029044,-0.598748263993245
mp-20847,Ti5Sn3,0.130761988,6.425214777000001,0.0,49.0,107.0,0.52,0.3,127.4,0.6894214207966044,-0.5830467504967661,-1.5914383599352566
mp-2108,Ti5Si3,0.12067629699999999,4.347039336,0.0,94.0,139.0,0.1,0.22,229.36,-0.5102604093948792,-0.45905184397936,-0.7929480973491662
mp-21289,TiZn3,0.184263698,6.697660335,0.0,24.0,96.0,72.59,0.38,66.24,-0.0526497174964007,-0.3242420641223026,-0.3616633601135061
mp-2179,TiRe,0.135248868,12.8134233,0.0,71.0,232.0,0.2,0.36,193.12,-0.03377551350526483,-0.1899012712086469,-0.46459128589779636
mp-2187,TiSb,0.112223765,6.344016708,0.0,45.0,89.0,2.04,0.28,115.2,-0.10775545353722717,-0.2889760785664818,-0.2871778619329807
mp-2194,TiSe2,0.155241019,4.692579365,0.0,12.0,16.0,21.84,0.2,28.8,0.33874151609098463,-0.5290334401966211,-0.246818416856488
mp-22033,Ti5Sb3,0.13095972,6.533810702,0.0,46.0,111.0,0.29,0.32,121.44,0.11021757154808472,-0.5861323770988036,-1.129047791598091
mp-23264,TiI3,0.174781203,4.359640174,0.0,2.0,4.0,16.16,0.28,5.12,0.7842728395178996,-0.6834702937811146,-0.018670410345866348
mp-2327,TiZn16,0.18627145899999997,7.014325082999999,0.0,28.0,79.0,0.41,0.34,75.04,-0.4918550342949317,-0.8094299231451251,-0.9035797640475977
mp-2339,Ti3Pt,0.155068597,8.766698916000001,0.0,58.0,166.0,0.11,0.34,155.44,0.2824875258527926,-0.46314803941883464,-0.7016293320473435
mp-2354,Ti3Hg,0.225646202,8.138604974,0.0,68.0,119.0,0.17,0.26,171.36,0.8858354097440309,-0.8144817173279689,-0.20891778026065683
mp-246,TiF3,0.113391974,2.82434557,0.0,45.0,104.0,4.55,0.31,117.9,1.274867694480567,-0.979161077730948,0.8420530950638373
mp-24726,TiH2,0.119730667,3.8327319980000003,0.0,20.0,138.0,4.41,0.43,57.2,-0.1030360794156561,0.8806347278548695,0.733849323810952
mp-2583,TiRh,0.14356653800000002,8.321025416,0.0,49.0,190.0,0.05,0.38,135.24,-0.011221706383994591,-0.21824817507175606,-0.3539302210648321
mp-2643,Ti3Cu4,0.173689309,6.7483003360000025,0.0,61.0,132.0,1.5,0.3,158.6,0.018933467958862957,-1.0219813273067675,-2.0555387019997386
mp-2749,TiBe2,0.12967227,3.29329553,0.0,106.0,124.0,0.06,0.17,248.04,0.0024731936151951616,-0.31187558245743857,-0.33385880541637236
mp-291,TiOs,0.130327423,13.33376693,0.0,134.0,248.0,0.1,0.27,340.36,-0.12334480020818335,-0.4282871711269058,-0.5137876639799259
mp-30500,TiCd,0.207649175,6.897648171,0.0,19.0,81.0,-413.66,0.39,52.82,0.32623224630602604,-0.16236297894991752,-0.6402927163875867
mp-30501,Ti2Cd,0.190629312,6.215938143,0.0,33.0,91.0,9.32,0.34,88.44,0.4589559071514445,-0.19830183185827538,-0.8254741320555773
mp-30671,Ti2Ga,0.14422885900000001,5.6496516979999996,0.0,63.0,121.0,0.2,0.28,161.28,0.10056921608076909,-0.27547220886749635,-0.48730975268999205
mp-30672,Ti3Ga,0.146817221,5.416551057,0.0,56.0,118.0,0.22,0.3,145.6,0.2332928769261875,-0.3114110617758542,-0.6724911683579827
mp-30673,Ti2Ga3,0.13478876,6.3829904960000015,0.0,67.0,91.0,0.32,0.2,160.8,-0.06115038467043462,-0.3299876505517022,-0.618354969861177
mp-30851,Ti3Pt5,0.148870687,14.80211128,0.0,73.0,202.0,0.52,0.34,195.64,0.15582692005680865,-1.1791268333591685,-1.0802724211471535
mp-30852,TiPt8,0.143376119,19.08272559,0.0,86.0,242.0,0.42,0.34,230.48,-0.20461585598101617,-1.644233222997703,-0.9938919066360309
mp-30875,Ti2Sn,0.137157098,6.451610572000001,0.0,60.0,115.0,0.44,0.28,153.6,0.21803615705769663,-0.32388638927416014,-0.6264894670466946
mp-492,TiN,0.188935823,5.340297397,0.0,180.0,259.0,0.19,0.22,439.2,0.09796341819365702,0.36194015582512934,0.19794681365729314
mp-505527,Ti5Si4,0.11348673699999999,4.2547353569999995,0.0,95.0,142.0,0.06,0.23,233.7,-0.8735472121907158,-0.49339210972232417,-0.7314869994294317
mp-541013,TiI4,0.17601629600000002,4.366869005,0.0,1.0,2.0,51.13,0.24,2.48,1.0294620008202158,-0.8405351800024744,0.053974695684314955
mp-544,Ti3Ir,0.152674402,8.833383915,0.0,13.0,169.0,0.42,0.46,37.96,0.1938990362602154,-0.40102053804999366,-0.668266197535014
mp-554278,TiO2,0.5274733420000001,3.615940003,0.0,61.0,181.0,0.35,0.35,164.7,0.5240925388116158,0.27031652670215034,-0.5862023039033797
mp-567705,TiAl2,0.108001502,3.536390535,0.0,82.0,109.0,0.09,0.2,196.8,-0.10451245040907821,-0.23484871605507396,-0.22856106945312746
mp-568,TiSb2,0.11247418599999999,7.37641929,0.0,54.0,89.0,0.25,0.25,135.0,-0.2642162626854072,-0.36567652201592743,-0.3377499954295537
mp-569708,TiPt3,0.148082306,17.02746448,0.0,107.0,234.0,0.15,0.3,278.2,-0.046290098736035894,-0.7492597305722861,-0.5205880452612667
mp-570199,Ti3Pd5,0.162338671,8.904611629,0.0,44.0,162.0,3.95,0.38,121.44,0.39936295078538886,-0.8288115132794776,-1.3746200481562452
mp-571143,TiCl3,0.076042162,2.277426127,0.0,3.0,5.0,36.29,0.28,7.68,1.189672102667981,-0.8937351530140634,0.5580976305431801
mp-571342,TiGa2,0.13243924099999999,6.5750881539999995,0.0,69.0,107.0,0.03,0.23,169.74,-0.11301424514025056,-0.2667910768012415,-0.36765094560759326
mp-592,TiRu,0.129274075,8.41943722,0.0,107.0,212.0,0.35,0.28,273.92,-0.06233537314947012,-0.32997455004615606,-0.3029669381518653
mp-608,TiCo3,0.176570334,7.948540329,0.0,83.0,194.0,1.05,0.31,217.46,-0.39686803088756145,-0.4630144582185007,-0.6704223727134415
mp-637255,Ti2Sn3,0.116306255,7.060315921,0.0,48.0,87.0,0.12,0.27,121.92,0.29125043826034863,-0.4752301917716928,-1.0358941129312853
mp-7092,TiSi,0.108760618,4.224308673,0.0,99.0,146.0,0.37,0.22,241.56,-0.31458144718488257,-0.2466159008600002,-0.17514463051667334
mp-739,TiP,0.105862821,4.219611373999999,0.0,91.0,139.0,0.55,0.23,223.86,-0.16424430361903983,-0.2418440853148996,-0.07150442678080192
mp-7498,Ti5Te4,0.252288564,6.3858071710000015,0.0,36.0,66.0,1.07,0.27,91.44,0.5915962603373262,-1.0038280474224521,-1.2391389769789694
mp-7857,TiB,0.135077862,4.575880541,0.0,190.0,207.0,0.09,0.15,437.0,-0.061518384875454794,-0.11764179016498844,-0.15041742185585433
mp-823,TiCo,0.169902532,6.714495213999999,0.0,61.0,163.0,0.0,0.33,162.26,-0.09981910655521838,-0.2958552428175241,-0.3812112765287524
mp-8282,Ti2N,0.166691073,4.881545214,0.0,117.0,204.0,0.9,0.26,294.84,0.23068707903907484,0.32600130291677154,0.012765397989301732
mp-866046,Ti3In,0.154256856,5.8881162389999995,0.0,45.0,108.0,0.32,0.32,118.8,0.2836898629842202,-0.33219743252562633,-0.9064289544767311
mp-866184,Ti3Pb,0.183213231,7.797411885,0.0,18.0,107.0,-4.9,0.42,51.12,0.3250016509849245,-0.03305791649569549,-0.553294320387333
mp-979115,Ti2Ag,0.20186430600000002,6.468902592,0.0,41.0,105.0,1.74,0.33,109.06,0.15903136041618038,-0.012425340027653472,-1.1449000790687094
mp-1014227,Ti2ZnN,0.176336744,5.650048112,0.0,100.0,149.0,0.15,0.23,246.0,0.19690205466995703,0.288679159915016,-0.02892047923639765
mp-1016108,TiZnN2,0.153114433,4.766285537,0.0,55.0,154.0,0.02,0.34,147.4,0.11343645640724313,0.8988338037655406,0.5908134785252955
mp-10402,TiTl2F6,0.199565028,6.057885868,0.0,7.0,25.0,1.39,0.37,19.18,4.2165805830791605,-2.861586605159364,3.2014564511422328
mp-11113,TiTeAs,0.20928136100000005,6.76960573,0.0,67.0,83.0,0.33,0.18,158.12,0.10241140938680714,-0.4688168793502832,-0.401548928597083
mp-1152,TiRh3,0.13516520699999998,10.28225175,0.0,129.0,230.0,0.48,0.26,325.08,-0.13107583037389045,-0.23019325498119592,-0.5885792063216824
mp-11573,TiTc,0.143267901,8.076824962,0.0,72.0,207.0,0.46,0.34,192.96,0.011303091418501434,-0.4548609392326323,-0.5596924928803253
mp-20459,TiPbO3,0.48778180299999996,7.295112049,0.0,39.0,63.0,3.29,0.24,96.72,0.7726351040950815,0.7627080320498,-0.7073263522518108
mp-2156,TiS2,0.127825619,2.865289943,0.0,14.0,18.0,41.79,0.19,33.32,0.13319324360653084,-0.2878392801307708,-0.7896251397861627
mp-22662,TiGaPt,0.141950142,11.14747011,0.0,57.0,163.0,0.99,0.34,152.76,-0.06381959621364491,-0.41852805444422214,-0.39678910929695305
mp-2731,TiGa3,0.12691368,6.684291685,0.0,74.0,100.0,0.3,0.2,177.6,-0.19387404551585266,-0.29404879764334446,-0.4331735541931861
mp-2767,TiGa,0.140494277,6.197682662,0.0,72.0,115.0,0.62,0.24,178.56,-0.032154444764648765,-0.23953335595913888,-0.3021283370220005
mp-27828,Cs2TiCl6,0.21762016399999998,2.963362009,0.0,5.0,9.0,0.06,0.27,12.7,4.865807060932167,-3.3430423646239977,3.3574746299865246
mp-27849,TiBrN,0.10900276199999999,3.9395889680000002,0.0,18.0,33.0,82.32,0.27,45.72,0.39797919751364397,0.1521150090105749,0.3220101762498733
mp-28232,MgTi2O5,0.531763455,3.551494204,0.0,71.0,162.0,0.24,0.31,186.02,1.1283648603689271,2.244525971504626,-0.38798568252199805
mp-29356,NaTi2O4,0.601065362,4.032112659,0.0,77.0,144.0,0.19,0.27,195.58,2.0074274600151116,0.8744735107833378,-1.235978736667665
mp-30840,Ti2Pd3,0.16219828,8.738526616,0.0,44.0,157.0,1.78,0.37,120.56,0.2325551805465306,-0.5750093914328297,-0.8823780371347122
mp-4019,CaTiO3,0.592293245,3.94046428,0.0,101.0,172.0,0.04,0.25,252.5,0.7159972748893911,1.6730872000039525,0.379933700109682
mp-458,Ti2O3,0.574517356,4.5235782680000005,0.0,87.0,216.0,0.04,0.32,229.68,0.894509791257365,0.47567375470338596,-0.9461820073048574
mp-5229,SrTiO3,0.608433412,4.962107562,0.8822180000000001,110.0,173.0,0.0,0.24,272.8,1.1557139479355831,1.2902886675525846,-0.609134429272874
mp-542915,TiAl3,0.10152896,3.365705446,0.0,89.0,107.0,0.4,0.18,210.04,-0.18112135341909358,-0.24613525652409324,-0.22453873996148666
mp-567889,TiGe2,0.131030623,6.55389977,0.0,83.0,112.0,0.34,0.2,199.2,-0.4428041442441429,-0.3108354864166923,-0.2904964403871738
mp-568069,Ti2Bi,0.155212018,7.998026445,0.0,22.0,72.0,2.38,0.36,59.84,0.10447165920211392,-0.07990926764155878,-0.776886876811158
mp-569484,Cs3Ti2Cl9,0.21960112399999998,3.0401275589999996,0.0,5.0,8.0,0.13,0.26,12.6,7.407081574438195,-4.9443645822858375,4.969333393530006
mp-569807,RbTiBr3,0.19304601,3.9356028010000004,0.0,7.0,16.0,0.93,0.32,18.48,2.1422651643581223,-1.3483883723659527,0.98410653302061
mp-616559,Ti2S,0.18172294100000005,4.802688027,0.0,85.0,147.0,0.28,0.26,214.2,0.22367296045415996,-0.2859963105322614,-0.6982968497792765
mp-672645,TiSiRh,0.113744607,6.784636672,0.0,88.0,187.0,0.22,0.3,228.8,-0.3745085091798303,-0.25258844081472037,-0.292469123145098
mp-742,Ti2Cu,0.16193087,5.722180271,0.0,55.0,126.0,1.04,0.31,144.1,0.10762421412063956,-0.4326714846186479,-0.7839296796612358
mp-753802,Sc2Ti2O7,0.47032732299999996,3.33816352,0.0,48.0,137.0,0.52,0.34,128.64,1.6440676978209703,1.3559364007245034,-1.5564392615720775
mp-7603,Li2TiF6,0.17311316100000002,2.8865205460000003,0.0,30.0,49.0,0.26,0.25,75.0,2.6640382145230896,-1.0927786101126313,2.0555236390931015
mp-861641,Ti2CoRe,0.15044112099999998,9.912983599,0.0,97.0,196.0,0.08,0.29,250.26,-0.049576314826018125,-0.3094197318174926,-0.7943782496581321
mp-865048,TiZnIr2,0.15921168,14.31377724,0.0,103.0,225.0,0.38,0.3,267.8,-0.2255869508413126,-0.4833321723512763,-0.4008868811873547
mp-865538,Ti2RePd,0.149252766,10.42939816,0.0,73.0,192.0,0.11,0.33,194.18,0.11599020203687284,-0.3347717585861498,-0.8033029992425591
mp-865809,TiTc2Sb,0.131670974,9.516408279,0.0,93.0,212.0,0.25,0.31,243.66,-0.18255998192213052,-0.7741466867976743,-0.9333513908208164
mp-865810,TiTc2W,0.129954827,11.69356062,0.0,128.0,263.0,0.23,0.29,330.24,0.5019271961094458,-0.7513356806587934,-0.7410188195329304
mp-865842,Ti2OsRu,0.129655915,10.87579173,0.0,122.0,231.0,0.21,0.28,312.32,-0.10166186812318877,-0.5819249389643834,-0.7653302893633754
mp-865898,TiZnCo2,0.187724223,7.7961961739999985,0.0,89.0,190.0,0.25,0.3,231.4,-0.2821285930905079,-0.41675699351976786,-0.5675027018467965
mp-865916,TiVRe2,0.129954165,13.40356358,0.0,115.0,255.0,0.08,0.3,299.0,-0.10544991826155725,-0.26343472310094324,-0.7510517722848514
mp-866140,TiGaPd2,0.154910083,8.943883097,0.0,5.0,164.0,-12.33,0.48,14.8,0.001929664628791068,-0.4573966248974295,-0.6091889323755426
mp-866168,TiInPd2,0.16489336,9.226915697999999,0.0,13.0,141.0,-23.53,0.46,37.96,0.05232665068682386,-0.47818299564720146,-0.8431267184942909