mp_id,Formula,IPF,Density,E_above_Hull,G_VRH,K_VRH,Elastic_Anisotropy,poisson_ratio,Y_Modulus,PC 1,PC 2,PC 3
mp-9755,HfGeO4,0.600267285,8.265722127,0.0,91.0,231.0,0.36,0.33,242.06,0.5944711693081945,0.6670243039483224,-0.9884280715530711
mp-977541,Hf2TcOs,0.11729662199999999,15.456555800000002,0.0,87.0,209.0,0.2,0.32,229.68,-0.34653100910828855,-0.7800202459972321,-1.0734235165065071
mp-977572,Hf2MnRh,0.120952045,12.89528143,0.0,78.0,167.0,0.16,0.3,202.8,-0.18263304410298895,-0.41552794026767503,-0.7370813059347655
mp-9801,HfCoAs,0.12637267800000002,11.54638033,0.0,92.0,181.0,0.11,0.28,235.52,-0.20836592089207506,-0.42705169580596125,-0.5063864164291146
mp-998552,BaHfO3,0.559245282,8.128152024,0.0,103.0,159.0,0.05,0.23,253.38,1.4722183593532225,1.5962526446942256,-1.794846203436844
mp-10076,Hf3(NiGe)4,0.134340284,10.68058574,0.0,87.0,160.0,0.1,0.27,220.98,-1.8509531357530435,-0.5374977819229753,-0.43210200049235303
mp-1014251,HfZnN2,0.153088026,9.189652946,0.0,86.0,185.0,0.78,0.3,223.6,-0.04581734636929238,0.8622293448423543,0.5651296423179597
mp-1014252,Hf3ZnN,0.140599692,12.35518868,0.0,90.0,150.0,0.17,0.25,225.0,-0.14813569281423145,0.14292693023710004,-0.29115340352639546
mp-1018714,HfGaCu,0.137644765,10.60248948,0.0,66.0,137.0,0.27,0.29,170.28,-0.2652130498769162,-0.4605948114755789,-0.6899547087861738
mp-1018726,HfVGe,0.129667916,10.07849083,0.0,78.0,146.0,2.05,0.27,198.12,-0.3454967327332042,-0.39406783549073576,-0.347709849544792
mp-1029396,SrHfN2,0.21102183800000002,7.206595653,0.0,45.0,116.0,2.09,0.33,119.7,0.38189549552346136,1.6782275477849506,0.7586816819076513
mp-10379,Hf3(Cu2Ge)2,0.14700387199999998,10.98268675,0.0,74.0,143.0,0.35,0.28,189.44,-0.9503374402258397,-1.230354555375982,-2.1864809225725117
mp-10457,HfSiPd,0.11791251300000001,10.62009742,0.0,92.0,169.0,0.22,0.27,233.68,-0.4567931952646985,-0.39215199425233177,-0.35435876440078024
mp-11869,HfSnPd,0.116515533,10.40380937,0.0,58.0,122.0,0.18,0.3,150.8,-0.056899251867536936,-0.4334836297581338,-0.6205221852628102
mp-12571,HfBeSi,0.09634352199999999,8.428040308,0.0,118.0,148.0,0.13,0.18,278.48,-0.496951330959297,-0.3330203334533875,-0.24945500521399147
mp-13472,HfSiRh,0.104006929,10.76733222,0.0,97.0,190.0,0.17,0.28,248.32,-0.5337623119563659,-0.2891928997379064,-0.3181529593524337
mp-13962,HfSiSe,0.137166455,8.568019089,0.0,56.0,83.0,6.59,0.22,136.64,-0.32881716972140185,-0.44159926232297897,-0.20593481093404892
mp-13963,HfSiTe,0.17728896,8.002290105,0.0,27.0,31.0,12.39,0.16,62.64,-0.47083618462524324,-0.44516960995118277,-0.26628036319165826
mp-13964,HfGeTe,0.20873888100000001,9.690570756,0.0,62.0,95.0,0.4,0.23,152.52,-0.3533041317569555,-0.46010926985804673,-0.3546868170867757
mp-15963,HfPRu,0.09877023800000001,11.37087531,0.0,95.0,221.0,0.12,0.31,248.9,-0.43453883515599856,-0.39614745916720556,-0.16354947270359566
mp-15987,Hf3(Cu2Si)2,0.13404263800000002,10.3019906,0.0,80.0,148.0,0.49,0.27,203.2,-1.1854015459624152,-1.2004752355622539,-2.009668014782277
mp-20192,HfMnSi,0.09668187199999999,9.599635636,0.0,86.0,162.0,1.21,0.27,218.44,-0.45946264297275946,-0.3713523542243754,-0.3474304635112797
mp-22258,HfSiMo,0.103660642,10.04908562,0.0,104.0,189.0,0.48,0.27,264.16,-0.5181277312291913,-0.4871884171859066,0.005608207193824402
mp-2960,HfSnRh,0.117414876,11.64392786,0.0,64.0,147.0,0.23,0.31,167.68,-0.13386836855920428,-0.33052453524370856,-0.5843163802144631
mp-31383,Hf6CoBi2,0.137081535,13.23415712,0.0,59.0,112.0,0.21,0.28,151.04,-0.5456383334958556,-0.3585658201307598,-2.1714208375262394
mp-34579,Na3HfF7,0.207962581,4.047250532,0.0,15.0,40.0,1.38,0.33,39.9,5.376169241669101,-1.5657684346282719,1.9095856986355346
mp-38818,HfNbB4,0.10436339,9.032454708,0.0,219.0,269.0,0.2,0.18,516.84,-0.2055226966553018,0.4198627473818849,-0.38398991984780856
mp-557938,HfVF6,0.095435584,4.077358133,0.0,33.0,75.0,6.08,0.31,86.46,2.352582694933575,-1.8785587950687321,1.8365531534310833
mp-567441,HfIN,0.170882421,7.387807546,0.0,12.0,23.0,-127.26,0.28,30.72,0.18389877671943664,0.16827081068058392,0.24490808348013787
mp-568346,HfBrN,0.09723618,6.767895149,0.0,18.0,38.0,51.8,0.3,46.8,0.2387253947371088,0.11551055008738897,0.2963263400425377
mp-571367,Hf(CoSi)2,0.11494683,8.748421437000001,0.0,106.0,190.0,0.09,0.27,269.24,-1.1341709770895976,-0.48471984092712683,-0.42857846498896396
mp-7032,HfMoP,0.11021265,10.709118199999999,0.0,121.0,208.0,0.06,0.26,304.92,-0.36779058766334854,-0.482416601640806,0.10924841092969587
mp-754128,Ba3Hf2O7,0.542509516,7.531869925,0.0,71.0,124.0,0.23,0.26,178.92,4.13583464725905,4.731382648512389,-4.7212281574314
mp-754363,Ba2HfO4,0.532396961,7.165757046,0.0,60.0,110.0,0.28,0.27,152.4,2.579597982671364,2.9587932216094854,-2.977806266762972
mp-7916,HfSiS,0.121311998,7.898134801,0.0,92.0,135.0,0.18,0.22,224.48,-0.4315913059636291,-0.321002182290054,-0.4773381723988868
mp-7917,HfGeSe,0.154490442,9.575608495,0.0,74.0,112.0,0.18,0.23,182.04,-0.21128511685311474,-0.4565389222298428,-0.294341264829167
mp-7918,HfGeS,0.139338715,8.927945661,0.0,82.0,127.0,0.12,0.24,203.36,-0.31405925309534155,-0.33594184219691786,-0.5657446262940042
mp-862684,LiHf2Os,0.135668418,13.175317499999998,0.0,54.0,147.0,0.05,0.34,144.72,-0.2276246543293833,-0.21080098676552167,-0.6829308917980796
mp-864671,HfAlRh2,0.116593965,10.87105434,0.0,131.0,187.0,-4.88,0.22,319.64,-0.3070114741654936,-0.27211171441868126,-0.4929162204089523
mp-864684,Hf2MoIr,0.126710339,15.13283504,0.0,81.0,191.0,0.07,0.32,213.84,-0.30162471140604674,-0.6422586603907287,-0.32801578036386053
mp-864877,Hf2CoRe,0.127578815,14.90188551,0.0,88.0,188.0,0.1,0.3,228.8,-0.36808392037908927,-0.38262864966386506,-0.8457459220728039
mp-864909,HfAlRu2,0.10185674199999999,10.97775589,0.0,80.0,195.0,0.02,0.32,211.2,-0.4092388076964444,-0.4955644643674811,-0.39098965458301926
mp-864926,HfPaTc2,0.140979675,13.24559534,0.0,45.0,168.0,1.65,0.38,124.2,-0.18577564019700185,-1.2826658913194422,-1.5565078053672243
mp-865019,HfGaRh2,0.124865954,11.95377551,0.0,89.0,189.0,-5.21,0.3,231.4,-0.31126237153107983,-0.28808289479176485,-0.5624611584861858
mp-865020,HfMgIr2,0.137693981,14.9396073,0.0,99.0,185.0,0.08,0.27,251.46,-0.5925878433378324,0.8036455667093484,0.5229080600808387
mp-865025,HfTaRe2,0.116286239,17.86085755,0.0,117.0,273.0,0.1,0.31,306.54,-0.3629974884453272,-0.07365266128208663,-0.6969838981645242
mp-865030,HfScRu2,0.117531686,10.52003012,0.0,80.0,178.0,0.31,0.3,208.0,-0.43323813460528937,-0.5267387627070892,-0.3505440357412978
mp-865038,HfTaTc2,0.123758003,13.75278574,0.0,99.0,227.0,0.31,0.31,259.38,-0.2728402785977949,-0.6035719973300577,-0.8871863121295821
mp-865050,HfMgRh2,0.133977553,10.44781773,0.0,71.0,156.0,0.01,0.3,184.6,-0.47193468524458004,1.025434881032393,0.4108543503492363
mp-865130,Hf2MoRh,0.12524376199999998,13.09614645,0.0,78.0,174.0,0.38,0.31,204.36,-0.24129813235942094,-0.5313640032292062,-0.38404263522966203
mp-865131,Hf2OsRh,0.116996814,15.490169199999999,0.0,46.0,202.0,2.53,0.39,127.88,-0.36905580691078393,-0.543407481836356,-0.8676612446910138
mp-865138,Hf2MnIr,0.121798887,14.97080708,0.0,87.0,196.0,0.22,0.31,227.94,-0.24295962314961508,-0.5264225974291975,-0.6810544510689645
mp-865215,TmHfRu2,0.146681721,12.75865623,0.0,73.0,157.0,0.43,0.3,189.8,-0.9115592801745424,-0.7377670854789947,-0.3421306776238329
mp-865846,LuHfRu2,0.13001911900000002,13.04803148,0.0,75.0,163.0,0.38,0.3,195.0,-0.5218029868229954,-0.5772366547648164,-0.2360399747768367
mp-866088,Hf2CoTc,0.13206811300000001,12.87493177,0.0,82.0,170.0,0.22,0.29,211.56,-0.3230053154553234,-0.6475883176878507,-0.9408471290553323
mp-866117,HfZnAu2,0.218506325,14.75026669,0.0,17.0,137.0,16.17,0.44,48.96,-0.2830706952584171,-0.5650675357215952,-0.7635931422749133
mp-867148,LiHfRh2,0.149378906,10.67610969,0.0,57.0,152.0,0.0,0.33,151.62,-0.1488984805690251,0.06580878116645207,-0.4295326896360839
mp-867327,Hf2TcRu,0.11747196800000001,13.45156018,0.0,91.0,194.0,0.33,0.3,236.6,-0.28552158204957523,-0.6817076249164823,-0.8626027906784467
mp-977407,Hf2ReRh,0.119739129,15.30780954,0.0,93.0,150.0,0.06,0.24,230.64,-0.2794865202078657,-0.30502158191809686,-0.8184648666088838
mp-983123,HfMgAu2,0.205879578,13.16185811,0.0,33.0,110.0,4.12,0.36,89.76,-0.49081778497840167,0.7585146622622158,0.18588563520061566
mp-1025799,MoSe2,0.10062396900000001,3.976518487,0.096590556,14.0,27.0,11.26,0.28,35.84,0.161725373977794,-0.6970626446909834,0.14479967272933664
mp-1025874,MoS2,0.080656359,2.79918169,0.793011111,12.0,18.0,321.8,0.23,29.52,-0.043822898506660386,-0.45586848462513346,-0.398007050200339
mp-1139,Co3Mo,0.165327433,9.788205406,0.0,133.0,260.0,0.13,0.28,340.48,-0.5738841730007525,-0.6310436627128632,-0.2788042831276171
mp-11481,MoIr,0.12703884599999998,15.89165365,0.0,174.0,310.0,0.11,0.26,438.48,-0.2485644275438121,-0.4971720367276411,0.09371472338679318
mp-11482,MoIr3,0.128567936,18.95428911,0.0,188.0,337.0,0.09,0.27,477.52,-0.4890717096269599,-0.730906430960126,-0.028880552138454082
mp-11506,Ni3Mo,0.148304628,9.512797012,0.0,89.0,230.0,0.53,0.33,236.74,-0.6565548402635158,-0.34011336082666316,0.42478698000209736
mp-11507,Ni4Mo,0.150197545,9.438041482000001,0.0,91.0,223.0,1.03,0.32,240.24,-0.8326361915172745,-0.32671620123175116,0.5147118529529909
mp-11508,MoP4,0.05769084,4.445367515,0.0,98.0,129.0,0.69,0.2,235.2,-0.980109423422211,-0.49857864040285266,0.8154175677718392
mp-12595,MoRh,0.12364762800000001,11.0887868,0.0,134.0,266.0,0.17,0.28,343.04,-0.18823784849718594,-0.3862773795661185,0.03768786852099202
mp-1275,SiMo3,0.10934713300000001,8.812461131000001,0.0,127.0,252.0,0.21,0.28,325.12,-0.5801825518336192,-0.8225812201598028,0.6293468069048178
mp-1332,Si3Mo5,0.10118744199999999,8.079854592,0.0,120.0,241.0,0.08,0.29,309.6,-1.3953411199608348,-1.2991978664511703,1.1651423505799543
mp-1434,MoS2,0.12225031,4.24270115,0.19976333300000002,18.0,27.0,140.72,0.23,44.28,-0.043822898506660386,-0.45586848462513346,-0.398007050200339
mp-1475,Be12Mo,0.112160451,3.097001488,0.0,150.0,141.0,0.09,0.11,333.0,-0.405703758476785,-0.9779045236538122,-0.4285061007303722
mp-1521,Sb7Mo3,0.100207,8.388927576,0.0,55.0,110.0,0.13,0.29,141.9,-1.3121214130750447,-1.3251440585629572,0.2138807745090712
mp-1634,MoSe2,0.14403907400000002,5.69222271,0.15478166699999998,14.0,18.0,78.16,0.18,33.04,0.161725373977794,-0.6970626446909834,0.14479967272933664
mp-1677,Be2Mo,0.11721309099999999,6.043401089,0.0,150.0,199.0,0.0,0.2,360.0,-0.17454294849799587,-0.47990478695180094,0.05775928416945159
mp-1743,Mo5As4,0.094011947,8.352970885,0.0,81.0,145.0,0.75,0.26,204.12,-0.10265275781461397,-1.5745450454832821,0.5827938420486445
mp-18856,MoO3,0.4667389870000001,4.118450011,0.0,36.0,33.0,0.85,0.1,79.2,0.5847699882987559,0.343583403117381,-0.36938250205104134
mp-1890,BMo,0.107039576,8.476293679,0.0,200.0,311.0,0.06,0.24,496.0,-0.2385345269886461,-0.285670994659351,0.24120066772997018
mp-19276,BaMoO4,0.46376293700000004,4.641315666000001,0.0,23.0,56.0,0.48,0.32,60.72,1.6921496116168984,1.7061239800326427,-1.552342565377171
mp-2049,ZrMo2,0.11826467,8.470043758,0.0,59.0,192.0,0.1,0.36,160.48,-0.21028499702881656,-0.7214144679564923,0.24977337342421588
mp-219,MoP,0.09070365,7.222266812999999,0.0,134.0,219.0,0.23,0.25,335.0,-0.34126044573223124,-0.4098732898092622,0.32011366280502257
mp-2331,B2Mo,0.091085754,7.035996166,0.0,225.0,295.0,0.03,0.2,540.0,-0.34875826747505406,-0.1910371497073032,0.32738897431052344
mp-259,AlMo3,0.115652776,8.470007537,0.0,121.0,225.0,0.23,0.27,307.34,-0.293504652047799,-0.7995274948858581,0.5719080384767237
mp-2592,Si2Mo,0.080113873,6.190200009,0.0,177.0,207.0,0.11,0.17,414.18,-0.85488439209391,-0.44898537109732717,0.2779345569888856
mp-2733,Al8Mo3,0.09665338300000001,5.003746842,0.0,104.0,141.0,0.27,0.2,249.6,-0.8297669731179073,-0.8785332781689907,0.6000643449182054
mp-2811,MoN,0.146345269,8.914411666,0.0,196.0,327.0,0.25,0.25,490.0,-0.07905272391953426,0.19391095133076708,0.5895649032431178
mp-2815,MoS2,0.11679514,4.0533793010000005,0.0,18.0,26.0,145.35,0.22,43.92,-0.043822898506660386,-0.45586848462513346,-0.398007050200339
mp-30787,MoRh3,0.12341749,11.60522409,0.0,127.0,268.0,0.05,0.3,330.2,-0.30809197248708153,-0.3982224594755585,-0.19696111673585753
mp-510536,MoO2,0.510962044,5.802427067000001,0.0,89.0,219.0,1.61,0.32,234.96,0.34707639669842455,0.10228732220778805,-0.19458421431755582
mp-557259,MoF6,0.09092264300000001,2.9466583060000002,0.0,3.0,5.0,0.44,0.26,7.56,2.3240138912369934,-1.9140757248392215,2.3123300081499085
mp-7581,MoSe2,0.151065423,5.969894206,0.11984500000000001,15.0,22.0,80.05,0.21,36.3,0.161725373977794,-0.6970626446909834,0.14479967272933664
mp-8601,Te4Mo3,0.227831592,7.173536852000001,0.0,14.0,33.0,9.66,0.31,36.68,-0.20489948769308233,-1.436037955088824,0.3060781231144876
mp-865803,Ti2MoPt,0.149288797,10.29814766,0.0,89.0,193.0,0.19,0.3,231.4,0.1054713837396018,-0.6311772439131972,-0.31001124246151934
mp-952,MoPt2,0.136157573,17.39009856,0.0,137.0,272.0,0.45,0.28,350.72,-0.1916410894002305,-0.7382942365815652,-0.03430918340048873
mp-972048,Zn6Mo,0.164142831,6.97797686,0.0,50.0,69.0,0.69,0.21,121.0,-0.33102093271694527,-0.6042376976219316,-0.09510290220478061
mp-972071,V3Mo,0.140188767,7.37133493,0.0,40.0,189.0,1.72,0.4,112.0,-0.09589139342246054,-0.6680282870134553,-0.020412425627580656
mp-975834,MoRu3,0.096870644,11.50847031,0.0,154.0,286.0,0.04,0.27,391.16,-0.46143297278350737,-0.7334015843987578,-0.04407126799695807
mp-999502,MoPt,0.133808071,15.63834778,0.0,135.0,275.0,0.18,0.29,348.3,-0.15997593795123444,-0.559299538096482,0.06035158887446384
mp-1025557,CoMoP2,0.099147315,6.807757036,0.0,111.0,198.0,0.13,0.26,279.72,-0.7027345671283961,-0.5230213477076134,0.3406094163682827
mp-2932,Y2Si4Mo3,0.117458929,6.293802756,0.0,98.0,156.0,0.08,0.24,243.04,-1.8087268101979985,-0.47934860721702516,0.7398335330490579
mp-510456,Zr(MoO4)2,0.36353141,3.371913948,0.0,14.0,22.0,5.32,0.24,34.72,1.6912637357738345,1.2089541793202536,-1.1486129284436735
mp-7574,AlBMo,0.100073655,6.301295829,0.0,138.0,211.0,0.38,0.23,339.48,-0.31514342999866174,-0.29695753512836975,0.24522299722161034
mp-864782,Ta2MoRu,0.11847154300000001,14.13498413,0.0,111.0,204.0,0.53,0.27,281.94,-0.4143261213572785,-0.23704634465780444,0.13120471423795316
mp-865807,Ti2MoIr,0.147256201,10.42970791,0.0,89.0,210.0,0.1,0.32,234.96,0.01688289414702427,-0.5690497425443563,-0.27664810794918976
mp-8804,Li6MoN4,0.22100921899999998,2.9048014610000004,0.0,67.0,83.0,0.03,0.18,158.12,0.5577460073472941,3.8763620548539475,2.2976576911112714
mp-989635,CaMoN3,0.157107475,4.111138053,0.0,45.0,105.0,0.68,0.31,117.9,-0.026325454276682293,2.503817125607307,2.599604279177068
mp-10208,NiMoP2,0.092858161,6.624752976,0.0,104.0,189.0,0.31,0.27,264.16,-0.7302914562159841,-0.42604458041221355,0.5751398374115206
mp-1029719,Ca3MoN3,0.190589323,3.44642778,0.0,23.0,56.0,2.77,0.32,60.72,-0.11790316532179466,4.82676631039172,4.881472862670161
mp-10300,ZrMoP,0.109632466,7.477221537,0.0,114.0,198.0,0.08,0.26,287.28,-0.378942174991037,-0.5470148607516361,0.20843800116198793
mp-11755,Lu6Sb2Mo,0.134361363,9.70199271,0.0,37.0,63.0,0.38,0.26,93.24,-1.5762708976179967,-1.0914581117084172,1.007700149943209
mp-18852,Na2MoO4,0.491528032,3.462290738,0.0,27.0,50.0,0.03,0.27,68.58,2.5729117342139185,0.8998868343676922,-0.7741776730431708
mp-19019,NiMoO4,0.5587630029999999,5.458432398999999,0.0,57.0,147.0,1.5,0.33,151.62,0.6463822286453282,0.5982766436218863,-0.45425591683363464
mp-19330,CaMoO4,0.509635821,4.061863068,0.0,33.0,75.0,0.3,0.31,86.46,0.7766747243765313,1.7463540764191827,0.5967535019620207
mp-21347,CoBMo,0.134117756,8.916195083,0.0,178.0,305.0,0.2,0.26,448.56,-0.38705898915481746,-0.36925060235983925,0.09659511963762554
mp-22262,CoMoP,0.12406403099999999,8.420895717,0.0,122.0,258.0,0.14,0.3,317.2,-0.4897849078984033,-0.49345289750975024,0.1755081147126772
mp-553896,K3MoF6,0.28179441899999996,2.7897050269999997,0.0,13.0,32.0,4.52,0.32,34.32,6.301828515100765,-3.932866441900738,5.578630983940098
mp-7632,NiMoP,0.116975732,8.299220613,0.0,95.0,241.0,0.1,0.33,252.7,-0.5173417969859903,-0.3964761302143502,0.41003853575591603
mp-862723,ScTc2Mo,0.13023333,8.808556961,0.0,75.0,210.0,0.32,0.34,201.0,-0.3037235448060023,-0.9079362866512182,-0.4466932194050573
mp-864770,Ta2MoOs,0.11895099099999999,16.31549299,0.0,129.0,215.0,0.21,0.25,322.5,-0.47533554841599157,-0.33535896573855417,-0.07961601159010724
mp-864954,MgMoN2,0.16966634600000002,6.226042988,0.0,183.0,246.0,0.08,0.2,439.2,-0.2713267754259324,2.054386797254987,1.9319103455866473
mp-972205,V2MoOs,0.126971193,11.42039643,0.0,124.0,241.0,0.25,0.28,317.44,-0.27874801360152274,-0.7881320072226393,-0.23911943224543358
mp-977353,Ta2ReMo,0.121210161,16.03517401,0.0,129.0,290.0,0.09,0.31,337.98,-0.3857662617130733,-0.09697306582029515,-0.03041963350797789
mp-4091,Ni2Mo3N,0.139346567,9.425318334,0.0,141.0,273.0,0.11,0.28,360.96,-0.5198003889625973,-0.1872308442848488,1.1822879969805713
mp-861627,Ti2AlMo,0.130984483,5.6528122629999995,0.0,42.0,150.0,1.1,0.37,115.08,0.0605276321785828,-0.4634690858971329,-0.2113281406949255
mp-865591,Ti2NiMo,0.150924168,7.112101517,0.0,79.0,171.0,0.06,0.3,205.4,-0.03894481606516112,-0.43878538583320215,-0.12542559723567268
mp-866213,TiTc2Mo,0.131443255,9.323271654,0.0,116.0,248.0,0.22,0.3,301.6,-0.07039165404172358,-0.901414300750949,-0.6763425834064101
mp-977363,Ta2TcMo,0.12491375800000001,13.92800334,0.0,113.0,195.0,0.27,0.26,284.76,-0.34068765678930735,-0.3619327338442803,-0.12552084049050719
mp-978568,Si3MoPt2,0.09229007800000001,10.53271661,0.0,91.0,184.0,0.63,0.29,234.78,-1.2815014977877361,-0.8413150338104574,0.1500741103587152
mp-9999,Ni(BMo)2,0.11868519400000001,8.688205499999999,0.0,179.0,296.0,0.18,0.25,447.5,-0.5691320999965854,-0.38160804751511107,0.6237505211792499
mp-556487,K2NaMoF6,0.283437602,3.134531105,0.0,29.0,81.0,0.06,0.34,77.72,5.851114384303587,-3.1024325277098725,4.3748655503807115
mp-560959,KTl2MoF6,0.227641222,5.490521339,0.0,14.0,14.0,1.03,0.13,31.64,5.365502648920557,-3.702546048674231,4.681841532658118
mp-560963,Rb2NaMoF6,0.323584557,3.9017723739999997,0.0,34.0,37.0,0.11,0.14,77.52,5.586262909968824,-2.7698466432793682,3.8943759138791445
mp-557133,Cs2KMoF6,0.360187056,4.097865627,0.0,21.0,74.0,0.06,0.37,57.54,6.185120310398742,-4.354853657572633,5.405770640543728
mp-555970,NaTl2MoF6,0.216042557,6.202362322000001,0.0,40.0,108.0,0.33,0.33,106.4,4.914788518123385,-2.8721121344833658,3.478076099098734
mp-10033,NbS2,0.123602586,4.019532925,0.0,15.0,23.0,72.82,0.24,37.2,0.34639029521702475,0.03830703439150304,-1.0708973056444504
mp-1018151,NbPd2,0.15362883300000002,10.5593086,0.0,74.0,190.0,1.39,0.33,196.84,0.2959865166148868,-0.10399258953305211,-0.8249384896482371
mp-10255,Nb3B4,0.108717917,7.190484535,0.0,198.0,274.0,0.11,0.21,479.16,0.5128488701876405,1.0728209824412624,-1.1060318310250392
mp-1046,NbSn2,0.10332447199999999,7.982741992,0.0,49.0,96.0,0.18,0.28,125.44,0.33511668842409925,-0.03747312309229426,-0.9272825401792854
mp-11272,Be2Nb3,0.12029355900000001,6.853194296,0.0,78.0,165.0,0.03,0.3,202.8,0.9075116701375141,0.5946856552926695,-1.5480381343272172
mp-11273,Be3Nb,0.115652644,4.710119604,0.0,126.0,155.0,0.05,0.18,297.36,0.19255416422780985,-0.035529241605365254,-0.6637575097646423
mp-11393,Nb3Ga2,0.124283722,8.136717747,0.0,97.0,167.0,0.2,0.26,244.44,0.7920242313820687,0.6397701609488666,-1.5818302745184383
mp-11514,NbPt2,0.13737976400000002,16.49762617,0.0,108.0,244.0,0.69,0.31,282.96,0.19857210432345454,-0.24411871756492848,-0.7071994388446003
mp-11517,NbRu3,0.099405979,11.00997227,0.0,128.0,271.0,0.56,0.3,332.8,-0.07121977905982249,-0.23922606538212138,-0.7169615234410691
mp-11675,NbTe2,0.25078116300000003,7.0943959670000005,0.0,19.0,28.0,3.63,0.22,46.36,0.26790053789379703,-0.210027820930754,-0.6487816872299944
mp-12104,NbSi2,0.081757756,5.577439731,0.0,140.0,175.0,0.05,0.18,330.4,-0.4646711983702245,0.045190147919310135,-0.39495569845522616
mp-12659,Mn2Nb,0.115651329,8.479514313,0.0,75.0,233.0,0.1,0.36,204.0,0.29064762119876475,-0.062393309477139614,-0.8110818878692359