mp_id,Formula,IPF,Density,E_above_Hull,G_VRH,K_VRH,Elastic_Anisotropy,poisson_ratio,Y_Modulus,PC 1,PC 2,PC 3
mp-12521,SrNi3Ge2,0.182869983,6.694657122000001,0.0,32.0,89.0,1.22,0.34,85.76,-0.7098440413272017,0.5439709052172422,0.31632575649749095
mp-12781,ScAl2Ni,0.11215092300000001,4.089561146,0.0,64.0,107.0,0.55,0.25,160.0,-0.5139256924271154,-0.22797354236043182,0.09101316749911989
mp-13095,YAlNi,0.14053811300000002,5.292877299,0.0,26.0,92.0,7.57,0.37,71.24,-0.4060504844866759,0.04890054200304953,0.005574605866634988
mp-13513,SrNiGe2,0.187280285,5.98316116,0.0,37.0,70.0,0.22,0.28,94.72,-0.3576813388196842,0.5171765860274189,0.13647601059570316
mp-15778,MgNiSb,0.12003015199999999,6.040044772999999,0.0,42.0,86.0,0.0,0.29,108.36,-0.6580925797255069,1.0466199889188434,0.8957213269357328
mp-20896,TmInNi4,0.18392747199999998,10.04338863,0.0,58.0,149.0,0.24,0.33,154.28,-1.3977359000551843,-0.424281397001439,0.06169609078164282
mp-21251,UGa5Ni,0.12169300000000001,8.710602968,0.0,58.0,91.0,0.0,0.24,143.84,-0.980367451425478,-0.2636214050112478,0.25171870430606896
mp-21301,ScInNi2,0.157985489,7.436590474,0.0,49.0,118.0,1.05,0.32,129.36,-0.5672520519784122,-0.2400473934193569,-0.12656701323760805
mp-22159,UNiAs2,0.114453811,10.36831096,0.0,53.0,112.0,0.18,0.3,137.8,-0.4746544726681104,-0.3165167889312352,0.38034913984797997
mp-22950,CsNiCl3,0.235137321,3.579747091,0.0,7.0,15.0,2.07,0.29,18.06,2.148451196172381,-1.728322987367247,1.8355407393939411
mp-30774,MgNi2Sn,0.144373902,7.3843006939999976,0.0,45.0,114.0,2.62,0.33,119.7,-0.6411059812297586,1.061045690714434,0.8315160104409065
mp-31136,Lu2NiSn6,0.113924234,8.66524009,0.696462037,39.0,65.0,0.14,0.25,97.5,-0.41880297715340054,-0.8028884918390737,-0.8717693588756483
mp-3329,Tb(NiGe)2,0.137388572,8.602990276,0.0,47.0,121.0,0.26,0.33,125.02,-1.3099652556163357,0.052357442097493344,0.2139557068930024
mp-3830,NiAsS,0.124597128,5.955129153,0.0,59.0,109.0,0.14,0.27,149.86,-0.16714872405075618,-0.2953134391858849,-0.337500449185427
mp-4071,Er2(NiB2)3,0.139820064,8.361676527,0.0,138.0,176.0,0.07,0.19,328.44,-2.418159069964958,0.4232554196987019,0.6935950640484965
mp-4510,DyNiSb,0.15873914,8.90416529,0.0,56.0,62.0,0.17,0.15,128.8,-0.8171277201831944,-0.2179758492029916,0.08290202985831815
mp-510409,TiSiNi,0.125407477,5.670689315,0.0,104.0,177.0,0.19,0.25,260.0,-0.49066279843864136,-0.23321874126508846,-0.08521975756577953
mp-557772,CsNiF3,0.33643812,4.488869301,0.0,8.0,25.0,7.3,0.35,21.6,2.2336467879849686,-1.8137489120841315,2.1194962039145997
mp-568280,Ba(NiAs)2,0.19336637399999998,6.607460921,0.0,27.0,64.0,1.23,0.32,71.28,0.5349190008551863,0.7825180448563123,-1.0787189498453256
mp-601285,MnGaNi2,0.131300315,8.27807567,0.0,63.0,158.0,1.9,0.32,166.32,-0.5026682011289261,-0.2649321783021462,-0.0836991722394926
mp-605034,K2NiF6,0.285466426,2.9787370139999996,0.0,10.0,16.0,0.25,0.24,24.8,4.844101437160188,-3.042570985882599,4.373352191043095
mp-861995,PaNi2Sn,0.15241844,11.258142999999999,0.0,39.0,141.0,0.38,0.37,106.86,-0.3999965317871727,-0.7738295533156482,-0.7243216016445699
mp-862318,LiAl2Ni,0.144534792,3.917294278,0.0,59.0,102.0,2.69,0.26,148.68,-0.33181337192180227,0.14112125156430982,0.1139510794302663
mp-862360,Sc2NiIr,0.14201556199999998,8.568913167,0.0,48.0,147.0,0.59,0.35,129.6,-0.5815697573675185,-0.3647284973472636,0.06613881908657789
mp-862361,Sc2NiOs,0.133996026,8.585714455,0.0,64.0,141.0,0.04,0.3,166.4,-0.6333662721450815,-0.4638728362408907,-0.149745478694317
mp-865712,Ti2MnNi,0.15163992,6.578268593,0.0,66.0,177.0,0.0,0.33,175.56,0.019720272191270916,-0.32294932287167105,-0.4784642679407759
mp-867197,LiGaNi2,0.179855126,6.993255041,0.0,-17.0,118.0,-7.91,0.58,-53.72,-0.43553671753113227,0.149833771255157,0.13030868481228644
mp-9473,Ba(NiP)2,0.201072057,5.670681919,0.0,37.0,75.0,0.86,0.29,95.46,0.0076057055158407685,0.9125651325910872,-0.5495337391480627
mp-1025191,ScGa5Ni,0.118118429,6.4304992389999995,0.0,41.0,90.0,0.65,0.3,106.6,-0.7650068882850931,-0.3416890656329081,-0.2446445344121242
mp-10398,HoNi4B,0.159971491,9.238511088,0.0,76.0,153.0,0.02,0.29,196.08,-1.4550023226078654,-0.26223228266082316,0.6023576578365656
mp-11431,CaGa3Ni2,0.151649506,6.107405067999999,0.0,39.0,85.0,0.48,0.3,101.4,-0.7245492643913445,0.9301589668470452,1.072791899123141
mp-11752,Lu7(NiTe)2,0.18748357899999998,9.764624745,0.0,34.0,61.0,0.21,0.27,86.36,-1.7543944520255976,-1.1241520794193294,1.110325705282833
mp-16516,TbAl2Ni,0.11439086300000001,6.264764626,0.0,54.0,83.0,0.46,0.23,132.84,-0.7955922105275108,0.11494705286419958,0.18596620487615642
mp-18732,TiNiO3,0.567247788,4.9480717919999995,0.0,82.0,177.0,0.13,0.3,213.2,0.5857047791581876,0.5250097672066558,-0.6710757186859739
mp-18817,NiSeO4,0.5477941820000001,4.63524014,0.0,42.0,69.0,0.49,0.25,105.0,0.835692790153117,0.6438657984848141,-0.6657989349615078
mp-21157,TmNiGe,0.175819563,9.623630351000001,0.0,59.0,95.0,0.18,0.24,146.32,-1.084783781903886,-0.46570870984412754,0.0644365106579203
mp-22617,YNiSn,0.142546215,7.15971176,0.0,42.0,91.0,0.41,0.3,109.2,-0.29283444087533406,-0.015484818776697924,-0.20315004656730004
mp-30460,YNiBi,0.161179558,8.634149277,0.0,48.0,77.0,0.18,0.24,119.04,-0.406398938730917,0.22849230285590347,-0.3535474563317633
mp-30656,TiGaNi,0.146269593,6.9918973179999995,0.0,69.0,147.0,1.26,0.3,179.4,-0.2082357960184077,-0.22613619636422705,-0.21220346407110668
mp-4316,Sr(NiAs)2,0.17137624699999998,6.541394557,0.0,30.0,54.0,4.14,0.26,75.6,0.05916078666101066,0.43994960879148487,0.08130898811131014
mp-4744,Ca(NiAs)2,0.143742748,6.107943625,0.0,40.0,83.0,0.59,0.29,103.2,-0.3805558863851814,0.8227481412428523,1.0703771174938663
mp-555718,SrNiF6,0.197843401,4.246523818,0.0,23.0,64.0,0.68,0.34,61.64,2.5861528387746446,-0.9180344479007477,2.3476843695469616
mp-557958,Cs2KNiF6,0.39840098399999996,4.218881622,0.0,15.0,57.0,0.13,0.38,41.4,6.053331440412756,-4.137488440575003,5.28925883957679
mp-568940,Y(NiP)2,0.133616798,6.264558082000001,0.0,85.0,140.0,0.27,0.25,212.5,-0.9314222511904064,0.014447341671253442,0.4216797526370982
mp-7066,ScNiGe,0.13878020900000002,6.237469422,0.0,63.0,124.0,0.22,0.28,161.28,-0.6064626363346324,-0.25468038707222196,0.05602315254045587
mp-865792,BeSiNi2,0.122655913,6.402183103,0.0,61.0,198.0,5.69,0.36,165.92,-0.8225838915356984,-0.23368270243201988,0.1412599925631219
mp-9672,K2NiP2,0.26102177,2.650848206,0.0,14.0,21.0,1.0,0.23,34.44,1.9658774409609707,-1.5679370010505025,2.5462371473538146
mp-973633,LuSi2Ni,0.115148855,7.677877764,0.0,63.0,129.0,0.38,0.29,162.54,-1.1758463442164626,-0.3245788849660495,0.3203947653197685
mp-18908,Sr2NiTeO6,0.624818285,5.911444406,0.0,62.0,131.0,0.43,0.3,161.2,1.956916593497211,2.6802397325574803,-0.7720087379581042
mp-12388,Er3Al3NiGe2,0.135226548,7.641166505,0.0,59.0,85.0,0.59,0.22,143.96,-2.6982672674495207,-0.30796261520494045,-0.06615078557199901
mp-556353,Rb2NaNiF6,0.358211658,3.938822907,0.0,26.0,41.0,0.14,0.24,64.48,5.454474039982838,-2.5524814262817364,3.777864112912205
mp-504723,Ba2NiWO6,0.590345706,7.368892592000001,0.0,65.0,122.0,0.48,0.27,165.1,3.433460325432781,3.4734364175445642,-2.8848522796124114
mp-10014,TaS2,0.121404365,6.161496079,0.330106667,23.0,18.0,1.87,0.06,48.76,-0.08701772028619609,-0.12142172228105634,-0.5831669427161749
mp-10142,Ta3B4,0.110338466,13.28435227,0.0,208.0,296.0,0.15,0.22,507.52,-0.7873751763220224,0.5936347124235833,0.35715925775978785
mp-1020,TaRh3,0.126100865,13.66078579,0.0,153.0,260.0,0.3,0.25,382.5,-0.3512867942666168,-0.0637756971314812,-0.38212100925169346
mp-1097,TaB,0.114081159,13.98092197,0.0,213.0,266.0,0.13,0.18,502.68,-0.2817293487681817,0.04877576768472639,0.0560407752141339
mp-1108,TaB2,0.103999466,12.11755194,0.0,200.0,302.0,0.14,0.23,492.0,-0.3919530892545899,0.1434096126367741,0.142229081794687
mp-11192,TaSi2,0.082399032,8.940924313,0.0,142.0,184.0,0.06,0.19,337.96,-0.8980792138734459,-0.11453860875324966,0.09277466447304918
mp-11278,Ta2Be,0.122424037,13.76091735,0.0,117.0,187.0,0.12,0.24,290.16,-0.28210899232696157,0.03482065400383458,-0.057497288454404945
mp-11416,TaGa3,0.121603153,10.06594092,0.0,80.0,106.0,0.22,0.2,192.0,-0.4140850094085795,-0.12763123979362986,-0.22671535712319804
mp-11572,TaTc,0.123694988,14.25820422,0.0,130.0,255.0,0.31,0.28,332.8,-0.20890787247422613,-0.28844338138291753,-0.3532342958103379
mp-11697,TaSb2,0.102693765,10.19517176,0.0,73.0,102.0,0.41,0.21,176.66,-0.4844272265781342,-0.19925896416621255,-0.1312917983595657
mp-12561,TaAs2,0.085606366,9.966510165,0.0,96.0,134.0,0.27,0.21,232.32,-0.07009163140241574,-0.2350420653978231,-0.22913013875247257
mp-12678,TaMn2,0.116021228,12.19993718,0.0,88.0,243.0,0.08,0.34,235.84,-0.14276039430445636,-0.22212206614969907,-0.3233515249409604
mp-1279,TaN,0.145129172,13.99558877,0.0,182.0,307.0,0.12,0.25,455.0,-0.12224754569907,0.5283577136748443,0.4044050107272815
mp-14815,TaTe5Pt,0.233000371,7.877542312,0.0,12.0,20.0,37.04,0.26,30.24,-0.1881754330498934,-1.0345990265923852,-0.4520677859796186
mp-1601,TaRu,0.10943927,14.56269336,0.0,65.0,264.0,0.29,0.39,180.7,-0.28254633704219717,-0.16355699219644093,-0.09650874108187778
mp-1936,TaAs,0.09949444,12.0305705,0.0,97.0,176.0,0.58,0.27,246.38,-0.12079861984209482,-0.14045007133257226,-0.1296388350594457
mp-1984,TaS2,0.120484544,6.114813454,0.0,17.0,29.0,64.09,0.26,42.84,-0.08701772028619609,-0.12142172228105634,-0.5831669427161749
mp-1989,Ta5Si3,0.105324011,12.787425500000001,0.0,133.0,215.0,0.04,0.24,329.84,-1.6113152288585133,0.3730359452692149,0.23934288800077366
mp-24082,Ta2H,0.117468701,15.32507086,0.0,66.0,202.0,0.34,0.35,178.2,-0.3348636288423869,0.6310758091599884,0.4763567761592572
mp-24723,TaH2,0.098678316,12.98092768,0.0,64.0,226.0,0.07,0.37,175.36,-0.32324704330838294,1.0470522857045848,0.9403075208809403
mp-2598,Ta5Sb4,0.11011216800000001,12.04459364,0.0,60.0,107.0,1.02,0.26,151.2,-1.1472980570637292,0.1692549687003246,-0.14732893974472383
mp-265,TaIr3,0.13095432199999998,20.76033448,0.0,212.0,325.0,0.24,0.23,521.52,-0.5322665314064952,-0.3964596686160485,-0.21404044465429023
mp-27488,Ta3N5,0.11650478199999999,9.746088438,0.0,99.0,241.0,0.45,0.32,261.36,-0.10018990146287114,3.0861782873262205,2.18516874190608
mp-28683,Ta(ICl)2,0.129084154,4.596406023,0.0,3.0,4.0,18.94,0.23,7.38,1.0795172123608754,-0.8142941949747253,0.644944920013667
mp-29652,TaSe3,0.163914017,7.3918986879999995,0.0,14.0,19.0,27.73,0.21,33.88,0.26354863243827464,-0.5209947848866987,-0.04546656399653903
mp-30835,TaPd2,0.154158207,13.64678735,0.0,72.0,205.0,1.91,0.34,192.96,-0.13742149888833385,-0.2637213462056117,-0.33720812671996137
mp-30836,TaPd3,0.158788068,13.28857423,0.0,89.0,214.0,0.59,0.32,234.96,-0.120379444191614,-0.37265298067475694,-0.4907384243967328
mp-30849,TaPt2,0.13526182,19.2036663,0.0,78.0,243.0,2.52,0.35,210.6,-0.23483591117976635,-0.40384747423748785,-0.2194690759163252
mp-30850,TaPt3,0.13872195,19.90951077,0.313665625,90.0,262.0,0.63,0.35,243.0,-0.26650106262876283,-0.5828421727225712,-0.3141298481912785
mp-30871,Ta3Sn,0.123472975,14.54767412,0.0,27.0,179.0,0.29,0.43,77.22,-0.309873073775065,0.13942743136662658,-0.1922962915047207
mp-31454,TaSbRu,0.099576444,11.28852735,0.0,70.0,175.0,0.0,0.32,184.8,-0.43900714619037745,-0.24025743564588692,-0.14708087457845087
mp-3340,TaAlCo2,0.14003932800000002,10.24116546,0.0,98.0,203.0,0.4,0.29,252.84,-0.5451634356241323,-0.2243038331373164,-0.31533629805946856
mp-3666,LiTaO3,0.558961511,7.178371403,0.0,83.0,123.0,0.05,0.22,202.52,0.6230792571056732,1.004664120577573,-0.4871365343023689
mp-4081,TaCu3Se4,0.14311196199999998,6.124709722,0.0,22.0,31.0,0.3,0.22,53.68,0.18715230567109542,-1.2327446772062531,-1.137000514877091
mp-517,TaSi2,0.082411014,8.942224434,0.005754444,142.0,185.0,0.05,0.19,337.96,-0.8980792138734459,-0.11453860875324966,0.09277466447304918
mp-541,Ta3Sb,0.125044189,14.80071912,0.0,84.0,185.0,0.57,0.3,218.4,-0.5029410235245709,0.1383988891659473,-0.03816610205899825
mp-5489,LuTaO4,0.52948056,9.223565214,0.0,57.0,132.0,2.13,0.31,149.34,0.5900956759829854,0.8263675155046971,-0.5703686730025409
mp-567276,TaV2,0.138144547,10.38566073,0.0,39.0,201.0,0.0,0.41,109.98,-0.14989267956192234,-0.2376737088686925,-0.14709738921775128
mp-567842,TaBe12,0.112554678,4.27704644,0.0,143.0,137.0,0.2,0.11,317.46,-0.44889858025632046,-0.643457761309735,-0.6136659932462083
mp-567982,TaSn2,0.103935801,10.17019178,0.0,50.0,103.0,0.21,0.29,129.0,-0.0982913270791223,-0.19720187976485365,-0.4395521772510109
mp-571499,TaIr,0.12936884,19.15566045,0.0,96.0,274.0,0.41,0.34,257.28,-0.29175924932334785,-0.16272527438356363,-0.09144516912904324
mp-574,Ta2Co,0.139293585,14.93141089,0.0,79.0,222.0,0.28,0.34,211.72,-0.40751737349525424,0.0010410199735476225,-0.1534762980567672
mp-5821,TaAgS3,0.171364364,6.7427645279999995,0.0,34.0,75.0,4.72,0.3,88.4,-0.0671714323285977,0.07658560320981667,-1.582789583355363
mp-7558,TaGe2,0.12439616699999999,10.9854727,0.0,102.0,144.0,0.11,0.21,246.84,-0.6630151081368694,-0.14441792856697758,-0.0840382433171852
mp-7834,TaSe2,0.152045448,7.759003113999999,0.0,14.0,31.0,31.48,0.3,36.4,0.11853055219825857,-0.3626158823469062,-0.040360219786499334
mp-7851,TaCo3,0.166496395,12.34903234,0.0,125.0,247.0,0.12,0.28,320.0,-0.617078994780288,-0.29659690036878594,-0.4639641756434534
mp-861954,LiTaRu2,0.135798305,11.30085059,0.0,66.0,178.0,0.12,0.34,176.88,-0.3120829752161675,0.045378047990553554,-0.09546409053282703
mp-862679,TaZn2,0.17810073699999998,11.49852302,0.0,89.0,152.0,0.0,0.25,222.5,-0.2390756570200097,-0.12050236327083223,-0.11351928581781859
mp-865364,DyTaRu2,0.153624571,12.89998314,0.0,72.0,182.0,0.66,0.32,190.08,-0.7941543203494097,-0.2595916902653404,-0.06789634762492128
mp-865519,YTaRu2,0.133878385,11.1143429,0.0,64.0,178.0,1.08,0.34,171.52,-0.4629289907910562,-0.05812920203972618,-0.1998182346048173
mp-866075,MgTaIr2,0.137700365,15.45488094,0.0,185.0,215.0,-4.88,0.17,432.9,-0.6535450044540233,1.0066675834822496,0.7550500933581626
mp-867123,TaTiOs2,0.119628545,16.24397965,0.0,101.0,268.0,0.39,0.33,268.66,-0.3828822590746283,-0.5138200021954186,-0.7696928181214474
mp-867816,TaRu3,0.09954999099999999,13.47656305,0.0,117.0,265.0,0.82,0.31,306.54,-0.5046277945630432,-0.3989548220546807,-0.22923116051279388
mp-869,TaAl3,0.09673960699999999,6.813775634,0.0,104.0,133.0,0.18,0.19,247.52,-0.4013323173118201,-0.07971769867437832,-0.018080542891498602
mp-8732,Ta2Se,0.14986482,12.22023241,0.0,26.0,40.0,20.26,0.23,63.96,-0.11397483108906652,-0.07375827486575649,-0.013977094174462728
mp-977390,Ta3Ru,0.12001443099999999,15.76772962,0.0,85.0,266.0,0.03,0.36,231.2,-0.457520943136814,0.09740041768627289,-0.0539551782778828
mp-979289,TaW3,0.11988976800000001,18.29084524,0.0,139.0,255.0,0.03,0.27,353.06,1.4125734983684166,-0.2075263891990149,0.395133782007521
mp-999133,TaPd,0.144686096,14.24104208,0.0,71.0,204.0,1.97,0.34,190.28,-0.15446355358505387,-0.1547897117364665,-0.18367782904319066
mp-1029616,Ba(TaN2)2,0.18779178100000002,7.639377039,0.0,26.0,41.0,0.03,0.24,64.48,0.8077253707195444,3.502728287448366,0.7211776428177378
mp-10748,TaCu3S4,0.119872034,4.816679667,0.0,25.0,38.0,0.72,0.24,62.0,-0.22394423929781263,-0.7503563570745527,-2.222613960736441
mp-17287,TaTe4Ir,0.237451042,8.616494558,0.0,13.0,18.0,11.56,0.21,31.46,-0.27976298797864574,-0.810522275055549,-0.35325275499963915
mp-17518,Sr2TaN3,0.226424089,6.056681056,0.0,38.0,68.0,0.41,0.27,96.52,0.7641242145136107,3.234141415440859,1.5772424196426693
mp-20436,TaSiRh,0.10577506699999999,11.65452074,0.0,118.0,235.0,0.25,0.29,304.44,-0.5947194730725566,-0.0861708829650054,-0.08601092607510963
mp-21316,TaSiIr,0.107804815,14.82714465,0.0,125.0,259.0,0.17,0.29,322.5,-0.655046052119183,-0.1970655401265279,-0.029984071209308363
mp-30555,TaGaCo2,0.150167889,11.56215004,0.0,86.0,202.0,0.86,0.31,225.32,-0.5494143329897189,-0.24027501351040026,-0.38488123613670217
mp-3102,TaCuS3,0.130750151,5.611034233,0.0,25.0,43.0,0.83,0.26,63.0,-0.11857857862413936,-0.34366054138117796,-1.2218191839478896
mp-34293,CsTaN2,0.332227815,6.449455409,0.0,32.0,46.0,0.39,0.22,78.08,1.194594622487213,0.21864965776055795,1.8412943730528608
mp-3614,KTaO3,0.643703692,6.796251483,0.0,122.0,188.0,0.38,0.23,300.12,1.86751337447381,0.005099926440952918,0.5342245973631845
mp-39105,MgTa2N3,0.16673934699999998,11.372427900000002,0.0,201.0,276.0,0.01,0.21,486.42,-0.35275083767007215,3.0935280554825866,2.2025797765665094
mp-4001,BaTaS3,0.205808393,5.727826192999999,0.0,9.0,48.0,-66.46,0.41,25.38,0.8249122554294042,0.9620409512177451,-1.867838423983696
mp-4875,GdTaO4,0.52695082,8.57740316,0.0,65.0,140.0,0.45,0.3,169.0,0.28936792975574094,1.1651012752289163,-1.309367048438613
mp-5461,Rb3TaO8,0.593070888,4.390006388,0.118347205,11.0,29.0,3.73,0.34,29.48,5.3105805368824965,0.36459867959366543,1.117032687803527
mp-5475,NaTaN2,0.224855424,7.914573174,0.0,96.0,136.0,1.93,0.22,234.24,0.8022345940410497,1.2600771797873702,0.7239591111916613
mp-755013,Li5TaO5,0.536635358,4.429785677,0.0,68.0,93.0,0.54,0.21,164.56,1.4244828026521459,2.7937921028612154,-0.5671096687113076
mp-861908,TaTiRu2,0.11893240699999999,11.63238221,0.0,79.0,231.0,0.06,0.35,213.3,-0.26086340495720184,-0.3171947600339187,-0.34805136646532686
mp-861912,TaTiTc2,0.132783073,11.26501308,0.0,101.0,229.0,0.24,0.31,264.62,-0.11358647582125914,-0.5669675384068718,-0.861502475922246
mp-861951,LiTaRh2,0.15214820699999998,11.26820786,0.0,64.0,192.0,0.13,0.35,172.8,-0.2098556416852164,0.268830797939353,-0.19739065635875983
mp-862445,TaAlOs2,0.10180056900000001,16.16905509,0.0,143.0,272.0,0.0,0.28,366.08,-0.5922148229300624,-0.48916768975607966,-0.5804890729618162
mp-862446,TaAlRu2,0.101279786,11.46113479,0.0,131.0,239.0,0.01,0.27,332.74,-0.4701959688126357,-0.2925424475945799,-0.15884762130569532
mp-862699,ScTaOs2,0.11887771,15.411535,0.0,122.0,235.0,0.05,0.28,312.32,-0.6162141498389071,-0.5203419880956882,-0.5400434541200941
mp-863679,ErTaRu2,0.134172082,13.17567406,0.0,79.0,181.0,0.48,0.31,206.98,-0.9658641998280048,-0.2854570804203808,-0.18381249155688006
mp-864650,Ta2OsW,0.117156384,18.39478294,0.0,133.0,272.0,0.09,0.29,343.14,0.09698330173517737,-0.18528034564639848,-0.144292247716628
mp-864670,Ta2VOs,0.123384885,15.71065085,0.0,97.0,247.0,0.07,0.33,258.02,-0.42023660278829295,-0.22729872413651955,-0.34452761443360663
mp-864903,MgTaRu2,0.120008725,10.98079468,0.0,87.0,197.0,0.0,0.31,227.94,-0.6351191798917221,1.005004147856494,0.7449229494524945
mp-865172,YbTaRu2,0.151636663,13.91338818,0.0,70.0,179.0,0.71,0.33,186.2,-1.1944690084726648,-0.2950218002562491,0.18133563536309377
mp-865262,TmTaRu2,0.14845556099999999,13.30404691,0.0,78.0,180.0,0.34,0.31,204.36,-0.9725164412907337,-0.5347450687060938,-0.10998864434650908
mp-865804,TaZnRh2,0.14337138,12.47647371,0.0,-139.0,217.0,-5.63,0.91,-530.98,-0.3251447566407875,-0.09512530017851678,-0.30648239384896864
mp-865805,TaZnCo2,0.17241457300000002,11.63296528,0.0,75.0,200.0,1.31,0.33,199.5,-0.5023395569832345,-0.250339435670053,-0.3610445047768083
mp-866127,LuTaOs2,0.13180219599999998,17.77960627,0.0,96.0,226.0,0.11,0.31,251.52,-0.7047790020566133,-0.5708398801534155,-0.4255393931556333
mp-867788,TaGaOs2,0.10986875199999999,17.1805793,0.0,126.0,273.0,0.03,0.3,327.6,-0.5964657202956484,-0.5051388701291637,-0.650034011039049
mp-867901,ScTaTc2,0.130639748,10.6043824,0.0,73.0,193.0,0.2,0.33,194.18,-0.34691836658553815,-0.5734895243071414,-0.6318531119208931
mp-977561,LiTaIr2,0.155444959,16.20939464,0.0,108.0,269.0,0.2,0.32,285.12,-0.33050879977846853,0.04704148361630816,-0.08533694662715793
mp-1029442,Mg2TaN3,0.13310117300000002,5.567911528,0.0,53.0,122.0,0.53,0.31,138.86,-0.506795648711866,4.249309405523282,3.0890958954143404
mp-12931,SmTaO4,0.551188455,8.298047364,0.0,68.0,148.0,0.29,0.3,176.8,1.0281322454594624,1.223744049670429,-0.7950521782165781
mp-14753,Li7TaN4,0.23322778100000002,3.96754266,0.0,66.0,83.0,0.54,0.19,157.08,0.5960552761542115,4.537442772314139,2.179903658859943
mp-17481,Mg4Ta2O9,0.5434555670000001,6.0014544,0.0,76.0,149.0,0.28,0.28,194.56,0.9141209567174934,7.40132557578859,2.04911626143352