mp_id,Formula,IPF,Density,E_above_Hull,G_VRH,K_VRH,Elastic_Anisotropy,poisson_ratio,Y_Modulus,PC 1,PC 2,PC 3
mp-865490,V2CrFe,0.21125710640798706,7.348434423639102,0.0,107.0,232.0,0.68,0.3,278.2,-0.29069679710936264,-0.3140227851962329,0.12590822747594702
mp-865494,V2CrRu,0.165817662,8.137760168,0.0,106.0,243.0,0.48,0.31,277.72,-0.1956468055366487,-0.450497517339357,-0.08583852764087777
mp-8670,Ca3CrN3,0.229974075,3.241737275,0.0,51.0,86.0,0.07,0.25,127.5,-0.09581138431563313,5.066088179194252,4.82393304144666
mp-867837,BeCrRu2,0.140285469,9.069538942000001,0.0,101.0,269.0,0.0,0.33,268.66,-0.3514165440148022,-0.4261807743373062,-0.08387641799498749
mp-996996,CrAuO2,0.501351445,9.220117847000001,0.0,62.0,157.0,1.28,0.33,164.92,0.29979956584272727,0.20217654167051208,-0.4819328857437959
mp-1029550,Ca2CrN3,0.227170514,3.4520003339999996,0.0,30.0,94.0,4.46,0.35,81.0,-0.05002252879307696,3.9046135868020437,3.6829987497001095
mp-18779,Na2CrO4,0.496487907,2.666880339,0.0,19.0,39.0,0.91,0.29,49.02,2.5950035152200797,1.1392087031702256,-0.8317174942666761
mp-19281,LaCrO3,0.575570775,6.457324685,0.0,86.0,165.0,0.11,0.28,220.16,0.4835759238884292,1.179096972750144,0.05327823136637866
mp-19378,CrAgO2,0.504920014,6.280759054,0.0,45.0,140.0,5.03,0.35,121.5,0.34677052166439565,0.5773983390080611,-0.9752369705053705
mp-29005,U(Cr3P2)2,0.19450026,7.8455400210000015,0.0,92.0,145.0,1.28,0.24,228.16,-1.3849899367833516,-0.04688089278822361,2.043193197071531
mp-4226,LiCrS2,0.19208960600000002,3.2066209999999997,0.0,43.0,83.0,0.55,0.28,110.08,0.05977297308595398,0.11008733929351364,-0.3881410111593348
mp-510625,CrCuO2,0.487354049,5.2956221480000005,0.0,58.0,155.0,2.04,0.33,154.28,0.295363375368854,0.15715219441706677,-0.6142665710978985
mp-5862,CrCuS2,0.17478288399999994,4.535384722,0.0,41.0,94.0,0.32,0.31,107.42,-0.09553591983623048,-0.4010036124158549,-0.817689406980681
mp-7692,Al(CrB)2,0.185516734,5.327369116,0.0,175.0,227.0,0.08,0.19,416.5,-0.4254760897405202,0.07235199002602348,0.42276833527298646
mp-864953,MnV2Cr,0.176509897,7.1516151,0.0,99.0,231.0,0.69,0.31,259.38,-0.07023346978756749,-0.42093059685142625,-0.16607931471269088
mp-864988,Mn2AlCr,0.149578766,6.6531736729999995,0.0,102.0,194.0,0.2,0.28,261.12,-0.15408269452877532,-0.32853350016026256,-0.19170912415698974
mp-865484,V2CrRe,0.16794362100000002,10.61855263,0.0,112.0,251.0,0.28,0.31,293.44,-0.16708694589244322,-0.3104242385018481,-0.24746287538680842
mp-865495,V2CrTc,0.173557358,7.954744599,0.0,101.0,237.0,0.38,0.31,264.62,-0.1220083409686772,-0.5753839065258329,-0.3425640823693384
mp-1029407,NaCrN2,0.222848359,3.146804444,0.0,36.0,76.0,0.53,0.29,92.88,0.8675211968267468,1.1649522862458257,0.8515791824839933
mp-10374,Cr3PtN,0.24133695800000002,10.70269106,0.0,158.0,267.0,0.19,0.25,395.0,-0.13302749488559215,0.32494574444784197,0.7351580151333155
mp-19146,CrPbO4,0.458091995,5.7279979910000005,0.0,18.0,33.0,1.05,0.28,46.08,0.8554043345883833,1.075296777267563,-0.5480463716229764
mp-19299,CrBO3,0.6357121410000001,4.046621554,0.0,109.0,181.0,0.69,0.25,272.5,0.49663802881850944,0.6775391168719613,-0.34073401669399367
mp-21495,CrFeP,0.20319535600000002,6.9171866060000005,0.0,143.0,238.0,0.05,0.25,357.5,-0.525259385059207,-0.15177560379272506,0.4079593869828845
mp-21495,CrFeP,0.2031953563609596,6.917186606244874,0.0,143.0,238.0,0.05,0.25,357.5,-0.525259385059207,-0.15177560379272506,0.4079593869828845
mp-28497,Cs2CrCl4,0.270824584,3.382537585,0.0,11.0,21.0,0.24,0.27,27.94,3.950238201787117,-2.8174433550511417,3.1617506590291176
mp-3532,CrAgSe2,0.203536295,6.112507625,0.0,23.0,64.0,0.44,0.34,61.64,0.1614194989437653,-0.22195162789071066,-0.6358530834584778
mp-4026,KCrS2,0.288871587,3.1156170519999997,0.0,36.0,49.0,0.58,0.21,87.12,1.3042070904540912,-0.8894768548431052,0.6332201205062189
mp-861656,Ti2CrIr,0.18206278899999997,9.760395642,0.0,79.0,190.0,0.13,0.32,208.56,0.0389746751531856,-0.3297278737418235,-0.33418792917269446
mp-865485,V2CrOs,0.165444345,10.87437114,0.0,125.0,265.0,0.23,0.3,325.0,-0.2566562325953619,-0.5488101384201071,-0.29665925346893834
mp-554252,K2NaCrF6,0.321991682,2.96100306,0.0,35.0,79.0,0.0,0.31,91.7,5.873206165309749,-2.8631106589073396,4.317325729157206
mp-31624,Sr2TaCrO6,0.58996829,6.556700116,0.0,107.0,187.0,0.02,0.26,269.64,2.0203108761058743,2.994624339471734,-0.6263080803450233
mp-556264,KRb2CrF6,0.358012936,3.422392517,0.3432948,27.0,36.0,0.48,0.21,65.34,6.059068821772159,-3.360958688667701,5.040601526215028
mp-560936,Rb2NaCrF6,0.360392249,3.7691076619999997,0.0,27.0,36.0,0.17,0.2,64.8,5.608354690974982,-2.5305247744768353,3.836836092655641
mp-1005,FeP,0.14550248040628322,6.371739342364888,0.0,133.0,212.0,0.28,0.24,329.84,-0.5030586847975957,-0.1871294151925377,0.259062534288556
mp-1009077,FeH,0.19513738021337607,7.098567499542508,0.0,91.0,177.0,0.03,0.28,232.96,-0.3659797430809073,0.38889421649127803,0.5791887587566299
mp-11385,YFe5,0.2056455695249951,7.107153233920273,0.0,68.0,105.0,0.13,0.23,167.28,-1.1838138318885885,0.14066900894717607,0.638555130430938
mp-1418,FeNi3,0.17367146631257085,8.700535614964549,0.0,96.0,203.0,0.73,0.3,249.6,-0.8183530793288801,-0.11736948620993876,0.36373585148563126
mp-1418,FeNi3,0.17367146600000002,8.700535615,0.0,96.0,203.0,0.73,0.3,249.6,-0.8183530793288801,-0.11736948620993876,0.36373585148563126
mp-1570,YFe2,0.2043185026424397,6.8729897874333465,0.0,36.0,92.0,0.25,0.33,95.76,-0.5655416708891761,0.08434155730516442,0.20239849422683587
mp-1714,FeSi2,0.10435576052265744,4.958877478506669,0.0,127.0,181.0,0.03,0.21,307.34,-1.0166826311592743,-0.22624149648060282,0.21688342847241937
mp-1722,Zn13Fe,0.1931331446931752,7.3193844320864025,0.0,42.0,86.0,0.28,0.29,108.36,-0.7293143423661339,-0.6427488240174963,-0.44795517130114126
mp-1804,Fe3N,0.2174494712907349,7.421215789217515,0.0,96.0,207.0,0.04,0.3,249.6,-0.653032403651174,0.4542064603754991,0.819284865529386
mp-18695,Fe15Co,0.2214510835631901,8.075535767806645,0.5593906250016545,77.0,184.0,0.67,0.32,203.28,-3.323903572397698,0.021720868300893488,1.9847533201597447
mp-1915,Fe2B,0.201753559860406,7.490316374323061,0.0,145.0,227.0,0.02,0.24,359.6,-0.6064234863871478,-0.04415130282862242,0.3255350846148707
mp-19306,Fe3O4,0.5317615508776439,4.949992970445885,0.0,64.0,176.0,0.18,0.34,171.52,0.24848390016744829,0.8451749930717067,-0.31446082749826
mp-19870,GaFe3,0.1962233976191226,8.032436452051366,0.0,54.0,174.0,7.62,0.36,146.88,-0.7831502666094793,-0.14726705140876914,0.3192097148500918
mp-19880,FeTe2,0.3230787550130327,8.053991107072365,0.0,74.0,94.0,0.28,0.19,176.12,-0.2841108948952526,-0.4814594653306671,-0.03694256030234865
mp-20027,FeP2,0.10457399221341222,5.127712739268919,0.0,154.0,180.0,0.52,0.17,360.36,-0.7160083440275895,-0.21669786539040142,0.4241638359441614
mp-2008,FeAs2,0.10876292493400244,7.424133717867275,0.0,110.0,134.0,0.53,0.18,259.6,-0.18869504868824394,-0.34674495312517617,-0.10502137475310185
mp-20311,FeSe,0.17457803488601534,5.619828139849753,0.0,13.0,19.0,36.92,0.22,31.72,-0.1450909453275867,-0.31593986753446657,0.08885488842290976
mp-20711,Fe3Ge,0.20425035234937108,8.399632972357558,0.0,46.0,177.0,27.17,0.38,126.96,-0.9480452161614255,-0.16928925621649443,0.3577869674603019
mp-2090,FeCo,0.19552750482387027,8.290362608471677,0.0,91.0,189.0,1.08,0.29,234.78,-0.43863348773377425,-0.24114057269516237,-0.05064431545939462
mp-2199,Fe3Si,0.19209208810439832,7.388613812179111,0.0,93.0,212.0,1.55,0.31,243.66,-1.0655772690297138,-0.15434959630963074,0.44619342135541906
mp-2213,FeNi,0.1907674586716471,8.452470763420122,0.0,92.0,187.0,1.35,0.29,237.36,-0.4661903768213615,-0.1441638053997624,0.18388610558384427
mp-2213,FeNi,0.19076745899999997,8.452470762999999,0.0,92.0,187.0,1.35,0.29,237.36,-0.4661903768213615,-0.1441638053997624,0.18388610558384427
mp-2225,Be2Fe,0.16780534254844753,4.7693529463857045,0.0,146.0,158.0,0.02,0.15,335.7999999999999,-0.3363411875633604,-0.2571609123350768,-0.003291844347014135
mp-2463,LuFe2,0.20587900032993334,10.434599016620464,0.0,50.0,83.0,0.1,0.25,125.0,-0.6853728280373065,-0.2317438786470248,0.39831878733214066
mp-2658,AlFe,0.1635337825325206,5.791723402212628,0.0,95.0,175.0,1.07,0.27,241.3,-0.36671792857761804,-0.1688475054636933,0.0979835621245908
mp-27164,FeP4,0.07426004152344727,4.1175342188179735,0.7281951666655573,112.0,138.0,0.3,0.18,264.32,-1.141907662487575,-0.27583476578612853,0.754366439255373
mp-2831,FePd,0.1842589748913213,9.670923150072896,0.0,76.0,162.0,0.9,0.3,197.6,-0.27306697087088255,-0.26649259946381965,-0.05956906504382038
mp-305,TiFe,0.1998886594219398,6.642034495803112,0.0,97.0,194.0,0.55,0.29,250.26,-0.1573853647221844,-0.19349981790303203,-0.09122018303504041
mp-305,TiFe,0.199888659,6.642034496,0.0,97.0,194.0,0.55,0.29,250.26,-0.1573853647221844,-0.19349981790303203,-0.09122018303504041
mp-556911,FeF2,0.144358749947598,4.067297734527241,0.0,33.0,97.0,1.62,0.35,89.10000000000002,0.5273325336788074,-0.6688179267372818,0.8130671149664471
mp-558852,FeF3,0.1170207291147536,3.1330774158156265,0.0,49.0,104.0,3.06,0.3,127.4,0.9360533133020114,-0.9244464076085855,1.1726200561331956
mp-568006,DyFe5,0.22184363095015305,8.548117600189117,0.0,65.0,86.0,0.32,0.2,156.0,-1.5150391614469425,-0.060793479278437895,0.7704770174108335
mp-568077,TaFe2,0.19327346453639424,12.522527213669706,0.0,93.0,228.0,0.06,0.32,245.52,-0.5836870489480486,-0.008306442839313059,0.26062355943631466
mp-568077,TaFe2,0.193273465,12.52252721,0.0,93.0,228.0,0.06,0.32,245.52,-0.5836870489480486,-0.008306442839313059,0.26062355943631466
mp-570001,Al6Fe,0.09789489323990884,3.4281382687103252,0.0,56.0,106.0,0.46,0.28,143.36,-0.7497624436276956,-0.22528020780878857,0.11809520958279275
mp-570553,FeP4,0.07373298156910843,4.0883100579794185,0.0,114.0,141.0,0.44,0.18,269.04,-1.141907662487575,-0.27583476578612853,0.754366439255373
mp-601820,Fe3Co,0.20954903839243388,8.136129054031493,0.0,96.0,187.0,0.49,0.28,245.76,-0.8508149284000495,-0.2035889382671546,0.24012677534333995
mp-601842,Fe9Co7,0.1979653804218472,8.206826865271259,0.0,97.0,190.0,0.65,0.28,248.32,-2.9785060233959,-0.5924116811860597,0.24480675919747746
mp-601848,Fe11Co5,0.20439360401920206,8.108531533908858,0.0,98.0,192.0,0.59,0.28,250.88,-3.0936385397298345,-0.3877008313570754,0.8247889461848997
mp-636368,Ga3Fe,0.12552372246884655,6.809894203032001,0.0,66.0,102.0,0.34,0.23,162.36,-0.5326884266944084,-0.23933412752098304,-0.10260659312382767
mp-639789,Fe2Re3,0.1476792971076537,16.884043971045738,0.0,101.0,251.0,0.02,0.32,266.64,-0.7436423532493939,-0.07166205605550258,-0.44460989434984916
mp-6988,FeN,0.19241480430505886,6.127073159507482,0.0,60.0,267.0,2.72,0.39,166.8,-0.2408509629848986,0.41665482594749115,0.5285137747266515
mp-760,FeSe2,0.2259465293347025,7.0898572130344615,0.0,92.0,118.0,0.28,0.19,218.96,-7.28650875705671e-05,-0.4743187700742592,0.08374854421286995
mp-778,Fe2P,0.1760389680764239,7.083597008639862,0.0,89.0,216.0,0.23,0.32,234.96,-0.7091494051307335,-0.16835359797853391,0.4044480796899229
mp-865212,Fe3Re,0.2038570048860656,12.874922439317725,0.4775339583318328,177.0,310.0,0.07,0.26,446.04,-0.7847713353500958,-0.09763496665827719,0.15674676597429593
mp-866134,VFe3,0.20810172516849768,7.739814841627519,0.0,90.0,193.0,0.55,0.3,234.0,-0.6914840018739516,-0.21591714636735215,0.32625739451001917
mp-866134,VFe3,0.208101725,7.739814842,0.0,90.0,193.0,0.55,0.3,234.0,-0.6914840018739516,-0.21591714636735215,0.32625739451001917
mp-871,FeSi,0.14791894463886804,6.333879896320733,0.0,139.0,211.0,0.06,0.23,341.94,-0.6533958283634383,-0.19190123073763857,0.15542233055268512
mp-971669,FeSb3,0.10119575205206092,7.235385105312518,0.0,44.0,82.0,0.56,0.27,111.76,-0.7594914530121428,-0.38766229534301083,-0.05775516785676892
mp-983590,Be3Fe,0.15205066659283706,4.042916437987318,0.0,82.0,155.0,3.48,0.28,209.92,-0.3594572685612392,-0.306960886005278,-0.05191838283699647
mp-1018725,HoFeSi,0.152978948933995,7.921780119084059,0.0,57.0,92.0,0.87,0.24,141.36,-1.2098307002353947,-0.4260192145214788,0.3633165027735388
mp-12956,Yb(FeP3)4,0.10222130167586677,5.414620990655353,0.0,108.0,150.0,0.0,0.21,261.36,-4.264659039996977,-0.46982080885771094,2.855539074864748
mp-1522,FeS2,0.20398386201178567,4.89365155220211,0.0,125.0,150.0,0.3,0.17,292.5,-0.205621137572025,-0.23312461000840942,-0.45905817871680515
mp-1918,FeRh,0.15727479443423822,9.581024882451251,0.0,79.0,197.0,0.8,0.32,208.56,-0.35003608756255034,-0.16353350494939425,-0.0233632599954742
mp-20856,Eu(FeP3)4,0.10895342920113564,5.2072546118558565,0.0,112.0,151.0,0.01,0.2,268.8,-3.7969744536164223,-0.37457749682039126,2.6669011555186914
mp-20892,ZrFeP,0.14112125045217866,7.004553603311077,0.0,119.0,202.0,0.13,0.25,297.5,-0.5407404140564009,-0.32427098613491173,0.14738687264552192
mp-20892,ZrFeP,0.14112125,7.004553603,0.0,119.0,202.0,0.13,0.25,297.5,-0.5407404140564009,-0.32427098613491173,0.14738687264552192
mp-22300,FeCo2Ge,0.17674732082160266,8.703471491062963,0.0,71.0,168.0,1.41,0.32,187.44,-0.8329126998274936,-0.37400010604547873,-0.22219521952712218
mp-2260,FePt,0.16996073604521206,14.814623937197833,0.0,92.0,201.0,0.69,0.3,239.2,-0.3217741770165988,-0.3365556634797577,-0.0006995396420022185
mp-2866,Yb(FeSi)2,0.15772622596283298,7.537767409339553,0.0,68.0,115.0,0.28,0.25,170.0,-2.023655294162456,-0.22123157239728664,0.7064745600342163
mp-31205,Zr3Fe,0.13175370668852934,6.80880443383841,0.0,36.0,104.0,0.17,0.34,96.48,-0.40315421334401896,-0.568985677821796,-0.2410657522961511
mp-31205,Zr3Fe,0.131753707,6.808804434,0.0,36.0,104.0,0.17,0.34,96.48,-0.40315421334401896,-0.568985677821796,-0.2410657522961511
mp-3190,Er(FeB)2,0.17199723440842046,8.298256566490334,0.0,79.0,117.0,0.21,0.22,192.76,-1.288924360898941,0.04628136882860498,0.3907808504358804
mp-3489,Nd(FeSi)2,0.1929636306478071,6.569673706769142,0.0,80.0,125.0,0.25,0.24,198.4,-1.457864069416686,0.008689955099116185,0.2717009472571955
mp-3701,Sc(Al2Fe)4,0.12759692236827402,4.348807153271613,0.0,85.0,126.0,0.19,0.22,207.4,-1.6218606405659992,-0.23398667591344188,0.6067644531035364
mp-505531,FeS,0.15456986974137746,4.140337296357571,0.0,19.0,30.0,47.19,0.24,47.12,-0.24786508156981368,-0.19534278750154202,-0.1825484730419271
mp-505554,Sc(FeSi)2,0.14361618887288816,5.391728237009906,0.0,110.0,172.0,0.18,0.24,272.8,-1.3233815814112704,-0.2499265180752259,0.40673692220714935
mp-568725,Dy(FeB)2,0.1928314060287035,8.008231829204718,0.0,75.0,113.0,0.2,0.23,184.5,-1.1172144814203462,0.07214675898364555,0.506696994367839
mp-5778,AlVFe2,0.18172229698259232,6.773327621235782,0.0,137.0,218.0,0.0,0.24,339.76,-0.5620021845508294,-0.24597950405037494,0.18489417860029236
mp-5778,AlVFe2,0.181722297,6.773327621,0.0,137.0,218.0,0.0,0.24,339.76,-0.5620021845508294,-0.24597950405037494,0.18489417860029236
mp-7600,Th(FeSi)2,0.15089079406668066,8.501325575542893,0.0,88.0,154.0,0.22,0.26,221.76,-1.7682548715814974,-0.108476484228864,0.6556382569850011
mp-862288,AlFe2W,0.16552365154728016,10.595547042879602,0.0,64.0,232.0,3.85,0.37,175.36,-0.04478228002735879,-0.203961125560254,0.3851295453172717
mp-862288,AlFe2W,0.165523652,10.59554704,0.0,64.0,232.0,3.85,0.37,175.36,-0.04478228002735879,-0.203961125560254,0.3851295453172717
mp-864764,Ta2FeOs,0.13595772431198386,16.164722811212954,0.0,83.0,249.0,0.19,0.35,224.1,-0.6371337874813563,-0.11261509112182984,-0.14066714010657405
mp-864764,Ta2FeOs,0.135957724,16.16472281,0.0,83.0,249.0,0.19,0.35,224.1,-0.6371337874813563,-0.11261509112182984,-0.14066714010657405
mp-865187,MgFeRh2,0.15279574249770486,8.317102651224308,0.0,73.0,155.0,0.4,0.3,189.8,-0.6514952636466009,1.1167540100779407,0.7671051476259303
mp-9198,Fe(SiP)4,0.055335026870076964,3.3459219879134334,0.0,91.0,115.0,0.46,0.19,216.58,-2.5950548736709163,-0.4131958287579853,1.0002108309343114
mp-1019100,SmFeSi,0.1997474951801632,7.045097021894572,0.0,48.0,76.0,1.29,0.24,119.04,-0.4045323410235274,0.11251657256173878,0.08971083463647149
mp-12061,Lu(FeB)2,0.17942564343113718,9.21336916297408,0.0,71.0,148.0,11.58,0.29,183.18,-0.9058203090101223,-0.04247618874292966,0.5706954004932479
mp-16334,Fe3PdN,0.19676951228902068,8.27411915840166,0.0,85.0,187.0,0.07,0.3,221.0,-0.6359903489544536,0.3452748259063542,0.6657545678526142
mp-19102,Sr2FeO4,0.5771798647859696,5.106824805695793,0.0,63.0,111.0,0.03,0.26,158.76,1.4485209758809952,2.3649754785253823,-0.30149959357300826
mp-19359,NaFeO2,0.5920539626991935,4.208426588436105,0.0,72.0,114.0,0.3,0.24,178.56,1.0605022347904758,0.4825348719948711,-0.37063378446334283
mp-19963,TiFe2Sn,0.1842176596479672,8.367357755094483,0.0,106.0,181.0,0.0,0.26,267.12,-0.32686894445399567,-0.25039590193779454,-0.1505369605759688
mp-19963,TiFe2Sn,0.18421766,8.367357755,0.0,106.0,181.0,0.0,0.26,267.12,-0.32686894445399567,-0.25039590193779454,-0.1505369605759688
mp-22434,HfFeP,0.14317211265699495,10.755335245579223,0.0,125.0,213.0,0.13,0.25,312.5,-0.5295888267287131,-0.2596727270240817,0.04819728241322932
mp-22434,HfFeP,0.14317211300000002,10.75533525,0.0,125.0,213.0,0.13,0.25,312.5,-0.5295888267287131,-0.2596727270240817,0.04819728241322932
mp-4088,La(FeSi)2,0.1619870600352024,6.226265158917527,0.0,70.0,106.0,0.42,0.23,172.2,-1.346059196908898,0.3887260215636311,0.8424695285147138
mp-4196,NdFeSi2,0.1801205340396293,6.069993532662315,0.0,81.0,115.0,0.14,0.22,197.64,-1.2517733490835505,-0.010085862114887573,0.12631540185582724
mp-4883,Ba(FeP)2,0.2257445021865103,5.702756767321699,0.0,56.0,90.0,0.55,0.24,138.88,-0.05241303264291579,0.9233224478292711,-0.4386123942471138
mp-505332,LaFeSi,0.16556574698085802,6.127574045141812,0.0,24.0,38.0,30.77,0.25,60.0,-0.7766816737799267,0.4042904700925912,0.6356228851936108
mp-624492,Li(Fe3Ge2)2,0.18318550584879445,7.323536906496803,0.0,65.0,135.0,0.34,0.29,167.70000000000005,-2.222077536357028,0.06583237359214811,0.7805133960027626
mp-8306,Ba3FeN3,0.2903487904128355,5.196240137983644,0.0,19.0,33.0,0.6,0.26,47.88,2.4667232573339417,4.928819895848825,-1.6268664678638731
mp-8648,TiFeSi,0.1501576695810445,5.6248780041688065,0.0,109.0,183.0,0.4,0.25,272.5,-0.52067216751802,-0.22784008364599614,-0.02975908511530619
mp-8648,TiFeSi,0.15015767,5.624878004,0.0,109.0,183.0,0.4,0.25,272.5,-0.52067216751802,-0.22784008364599614,-0.02975908511530619
mp-9437,NbFeSb,0.13730043256093735,8.448733889055742,0.0,81.0,166.0,0.26,0.29,208.98,-0.1006491222598704,0.05594605316979699,-0.42306448238990135
mp-9437,NbFeSb,0.137300433,8.448733889,0.0,81.0,166.0,0.26,0.29,208.98,-0.1006491222598704,0.05594605316979699,-0.42306448238990135
mp-16272,Ce(FeP3)4,0.1017619091914366,5.171877804843587,0.0,132.0,161.0,0.02,0.18,311.52,-4.125357668839681,-0.23073126219586024,3.2543350282150265
mp-21141,Fe2CuGe2,0.16984691256283047,7.982389200859108,0.7931206666675905,62.0,129.0,0.98,0.29,159.96,-1.0615140480915681,-0.4218019956735811,-0.17668646947328556
mp-21471,LiFeAs,0.15618313575265286,5.211400407134747,0.0,40.0,68.0,0.49,0.25,100.0,-0.15789794654147077,0.07448099605618907,0.06187578920443305
mp-27904,FeSbS,0.15666462674286738,6.952996117476952,0.0,97.0,112.0,0.31,0.16,225.04,-0.40432589071799374,-0.2720432309509875,-0.23312060653850006
mp-28884,Cs(FeAs)2,0.291217460302899,5.880310923396107,0.0,26.0,44.0,0.18,0.25,65.0,0.8727983365821966,-1.2118929827676255,1.0427009908801415
mp-31187,TiAlFe2,0.18302227726688025,6.253070135591179,0.0,105.0,185.0,0.07,0.26,264.6,-0.44008498806533697,-0.1860105411580471,0.05818769185796716
mp-31187,TiAlFe2,0.18302227699999998,6.253070136,0.0,105.0,185.0,0.07,0.26,264.6,-0.44008498806533697,-0.1860105411580471,0.05818769185796716
mp-3805,Al(FeB)2,0.15354113742872438,5.79199396598175,0.0,129.0,203.0,0.2,0.24,319.92,-0.7932561298835711,0.039196001654406065,0.4157457206870648
mp-5399,Tb(FeSi)2,0.1389395877509802,7.200878266867101,0.0,82.0,137.0,0.2,0.25,205.0,-1.6050480995116658,0.09299407714940536,0.5016899595841863
mp-5597,Ca(FeP)2,0.1754508400779713,4.868177390439816,0.0,79.0,89.0,1.59,0.16,183.28,-0.967887919883282,0.9635525442158108,1.710483673092078