mp_id,Formula,IPF,Density,E_above_Hull,G_VRH,K_VRH,Elastic_Anisotropy,poisson_ratio,Y_Modulus,PC 1,PC 2,PC 3
mp-1021323,LiC12,0.035508103,2.019463862,0.0,98.0,125.0,141.62,0.19,233.24,-1.7020786732189197,1.6857090499016656,2.1520281117788507
mp-1021328,H4C,0.001838606,0.433068254,0.0,0.0,1.0,13.33,0.3,0.0,-0.529131546835239,2.1374349334846467,2.0674896720832336
mp-10721,Ti2C,0.131229555,4.439769168,0.0,78.0,139.0,1.07,0.26,196.56,0.039798644908805365,-0.12026349827587643,-0.24378326374749595
mp-1086,TaC,0.107625506,14.23428075,0.0,215.0,324.0,0.3,0.23,528.9,-0.31313597982934377,0.08209291248219104,0.14785634899049405
mp-1164,ThC,0.140426114,10.55853376,0.0,73.0,139.0,0.04,0.28,186.88,-0.7711301968711186,0.05060340257857515,0.41994885069969784
mp-11714,SiC,0.036810478,3.171929506,0.23119925,187.0,214.0,0.13,0.16,433.84,-0.5889354795778677,-0.08272605820212438,0.18804066550822296
mp-12574,Dy2C,0.17782504699999999,8.134774451,0.0,30.0,63.0,2.49,0.29,77.4,-1.0267831858756111,-0.005057358738718508,0.316526773933315
mp-1334,Y2C,0.137233081,4.535817843999999,0.0,32.0,61.0,2.39,0.28,81.92,-0.3643325267589062,0.39786761771251006,0.05268299997352189
mp-15178,Lu4C7,0.118920598,8.797273082,0.0,75.0,126.0,0.29,0.25,187.5,-1.832123234613727,0.347485222572535,1.8304908869211798
mp-1552,Mo2C,0.106004604,8.943989554,0.0,150.0,294.0,0.14,0.28,384.0,-0.3142336393175806,-0.4563219072645997,0.5394529154241514
mp-1569,Be2C,0.090490465,2.461261575,0.0,231.0,201.0,0.12,0.08,498.96,-0.2718808387777947,-0.1479857397995619,0.029326490608518194
mp-1591,Al4C3,0.067337119,2.93080406,0.0,113.0,160.0,0.2,0.21,273.46,-0.8153450319172404,0.16237002516380125,0.49867664626884606
mp-1894,WC,0.09443314900000001,15.35036905,0.0,279.0,385.0,0.13,0.21,675.18,0.3023776921013601,-0.1022752297697242,0.2683400053797973
mp-20066,CO2,0.345399093,1.49611641,0.0,3.0,5.0,0.01,0.27,7.62,0.24973850641862627,0.43420636936002677,-0.22301700787848863
mp-20181,Ce2C3,0.146738436,7.074733697999999,0.0,70.0,116.0,0.0,0.25,175.0,-1.8320705629026703,0.6581634941022032,1.9685904073237035
mp-20648,V2C,0.122961031,5.741137694,0.0,117.0,244.0,0.18,0.29,301.86,-0.20403574806218475,-0.24020142406053097,0.00962970973715235
mp-20937,Cr3C2,0.24241566,6.795180037000001,0.0,169.0,320.0,0.38,0.28,432.64,-0.4338811491144421,0.18562663148979686,0.7512740060283684
mp-21075,HfC,0.106749266,12.57416751,0.0,180.0,236.0,0.02,0.2,432.0,-0.252178818713154,-0.12092910429070347,-0.08428568428684305
mp-22749,Mn5C2,0.092084833,7.697623675,0.569235979,112.0,220.0,1.86,0.28,286.72,-0.2954160133863145,-0.3610947749155864,-0.42842653599096847
mp-2367,LaC2,0.136398184,5.294806649,0.0,34.0,92.0,6.05,0.33,90.44,-0.4905648937460953,0.6757568981205886,0.7847840025863105
mp-2486,UC2,0.116557552,11.77880757,0.0,71.0,155.0,5.0,0.3,184.6,-0.6832478413888522,0.11517201910339199,0.8454146349969397
mp-2489,UC,0.139361399,13.80024565,0.0,36.0,188.0,1.84,0.41,101.52,-0.5416174698412813,-0.012778970646126528,0.6674107546400394
mp-2760,Nb6C5,0.105546429,7.503639259,0.0,161.0,239.0,0.14,0.22,392.84,1.283354111763154,2.2046629362224146,-1.9601264001415841
mp-2795,ZrC,0.105359906,6.502963945,0.0,159.0,221.0,0.03,0.21,384.78,-0.26333040604084207,-0.18552736340153353,0.014903905945449741
mp-28731,V6C5,0.11450917099999999,5.617822508,0.0,175.0,238.0,0.08,0.21,423.5,-0.7273313768127653,-0.11202872826519955,0.48774551546209277
mp-29941,Sc2C,0.10907462,3.1182969289999996,0.0,15.0,74.0,-26.53,0.41,42.3,-0.4268651366197576,-0.13330747007641414,0.21551546425520798
mp-567505,SiC,0.036784218,3.169666699,0.41015175,187.0,214.0,0.11,0.16,433.84,-0.5889354795778718,-0.08272605820212386,0.18804066550821824
mp-567551,SiC,0.036832542999999995,3.1738308460000004,0.192918938,187.0,214.0,0.12,0.16,433.84,-0.5889354795778718,-0.08272605820212386,0.18804066550821824
mp-567580,PaC,0.147710764,12.35551731,0.0,79.0,172.0,0.09,0.3,205.4,-0.22607134142855215,-0.5970009815071868,-0.5214651442471614
mp-568656,SiC,0.03681023,3.1719081910000004,0.0,187.0,213.0,0.12,0.16,433.84,-0.5889354795778718,-0.08272605820212386,0.18804066550821824
mp-568696,SiC,0.036815939,3.172400112,0.853608357,187.0,213.0,0.12,0.16,433.84,-0.5889354795778718,-0.08272605820212386,0.18804066550821824
mp-568735,SiC,0.036826313,3.173293994,0.767991333,187.0,213.0,0.13,0.16,433.84,-0.5889354795778718,-0.08272605820212386,0.18804066550821824
mp-569989,Nb2C,0.11054693,7.673756117999999,0.0,117.0,228.0,0.29,0.28,299.52,0.46619274812978817,0.532029130768674,-0.8063275954640731
mp-570791,SiC,0.036806852,3.1716171230000003,0.304171026,187.0,214.0,0.13,0.16,433.84,-0.5889354795778718,-0.08272605820212386,0.18804066550821824
mp-570985,SiC,0.036810274,3.171911956,0.282435315,187.0,213.0,0.12,0.16,433.84,-0.5889354795778718,-0.08272605820212386,0.18804066550821824
mp-576,B13C2,0.035511087999999996,2.438647814,0.0,159.0,222.0,0.45,0.21,384.78,-1.8001876746529106,1.3098051816669785,1.425031433492578
mp-582034,SiC,0.036812671,3.172118513,0.375179786,187.0,213.0,0.12,0.16,433.84,-0.5889354795778718,-0.08272605820212386,0.18804066550821824
mp-7088,Ta2C,0.112562814,14.7686712,0.0,138.0,256.0,0.59,0.27,350.52,-0.4006232828766537,0.21257161742355454,0.16913313039247807
mp-723,Cr23C6,0.274722113,7.167799815,0.0,138.0,291.0,0.0,0.3,358.8,-1.44441664053696,1.4045068184841254,4.441226581342532
mp-7631,SiC,0.036807027,3.171632194,0.211832167,187.0,213.0,0.12,0.16,433.84,-0.5889354795778718,-0.08272605820212386,0.18804066550821824
mp-9459,Y4C5,0.13300700199999999,4.729248252,0.0,52.0,101.0,0.76,0.28,133.12,-1.0695378629260648,1.3559249868822545,0.6908019537861574
mp-1025246,Er2B4C,0.131380924,8.158864972,0.0,127.0,169.0,0.84,0.2,304.8,-1.8110979067784378,0.3217472407593907,0.4294477123916087
mp-1025323,Dy2Cr2C3,0.20567280899999998,8.179075697,0.0,69.0,149.0,0.77,0.3,179.4,-1.3544453294939822,0.3215522435599438,0.9703282400357689
mp-1025372,Y2Cr2C3,0.17595993199999999,5.553900998,0.0,74.0,161.0,0.63,0.3,192.4,-0.6919946703772738,0.7244772200111727,0.7064844660759769
mp-1025441,Ta2AlC,0.10355754800000001,11.45046293,0.0,122.0,194.0,0.15,0.24,302.56,-0.4772321858866694,0.2012850769545354,0.17315545988411826
mp-10601,Y3GaC,0.139220344,5.007370795,0.0,64.0,79.0,0.05,0.18,151.04,-0.5145342521229459,0.5937366019562421,-0.04978789241955436
mp-10699,LuRh3C,0.132909916,11.50305721,0.0,84.0,208.0,0.01,0.32,221.76,-0.5946029449034461,-0.1592621431896744,-0.06642190099896705
mp-10706,ZrRu3C,0.09278447699999999,9.774537371000001,0.0,157.0,257.0,0.1,0.25,392.5,-0.5964525923221113,-0.5386241081888932,-0.18417972320092435
mp-10856,Er(BC)2,0.107457875,7.06027874,0.0,124.0,178.0,1.07,0.22,302.56,-1.1600036633278084,0.26463171389963436,0.4560175203469462
mp-10919,Rb2PtC2,0.299340577,4.759705947,0.0,17.0,37.0,14.89,0.3,44.2,1.988080741795811,-1.1127040948052305,1.906967023028989
mp-13137,Hf2CS,0.135853874,11.15244049,0.0,123.0,177.0,0.1,0.22,300.12,-0.2364650166464823,-0.23125423862911518,-0.5716606418370475
mp-13502,TmCoC2,0.16361520699999998,8.974300185,0.0,99.0,175.0,0.46,0.26,249.48,-1.0947328859838927,-0.2575035719906623,0.21285920630386618
mp-15661,Sc4C3,0.126701519,3.799358844,0.0,66.0,112.0,0.04,0.25,165.0,-0.9113423395526196,0.037672831805368893,0.6604591216357333
mp-1640,Ho2C,0.14173192699999998,8.412835113,0.0,32.0,64.0,2.4,0.29,82.56,-1.338518420525949,-0.5166217600268391,0.5423679120301921
mp-18814,MnCO3,0.49213422799999995,3.55923294,0.0,44.0,99.0,0.8,0.31,115.28,0.5018047050076165,0.5873704558284311,-0.5444172923992454
mp-20004,Zr2InC,0.11973004400000001,6.892760851,0.0,82.0,119.0,0.1,0.22,200.08,-0.33147494961721674,-0.37071302593578215,-0.39623215040192583
mp-20197,Cr2GaC,0.198991366,6.887637715,0.0,116.0,180.0,0.08,0.24,287.68,-0.35090987768086146,-0.004935890501636865,0.35885066439154734
mp-20424,MgCo3C,0.15722292300000001,6.5633791010000015,0.0,113.0,198.0,0.23,0.26,284.76,-0.9127541773696531,0.987135439421431,0.6005558235612792
mp-20661,Ti2PbC,0.17689840699999998,8.250785347,0.0,72.0,118.0,0.11,0.25,180.0,0.050647618591934535,0.13083192616218098,-0.19010902436244298
mp-27919,Ti8C5,0.131293409,4.541437897,0.0,115.0,170.0,0.16,0.22,280.6,0.2696191237910265,0.1759073432720523,-0.6428562363278411
mp-2958,Dy(BC)2,0.13422198800000001,6.758977099,0.0,127.0,182.0,0.97,0.22,309.88,-0.9882937838492128,0.2904971040546748,0.5719336642789049
mp-29896,Y2B3C2,0.123425447,4.565790384,0.0,65.0,149.0,11.41,0.31,170.3,-0.8366341197657033,0.8097201423181714,0.4892518000720799
mp-3054,Li2CO3,0.5103052579999999,1.996752479,0.0,27.0,55.0,2.88,0.29,69.66,0.6504402791918634,1.32877036050185,-0.2630035750829568
mp-3155,Sc3FeC4,0.13131601199999998,4.427777483,0.0,120.0,178.0,0.11,0.22,292.8,-1.1584552015144682,0.2268604775775184,0.9393805990606388
mp-3155,Sc3FeC4,0.1313160118297123,4.427777483208082,0.0,120.0,178.0,0.11,0.22,292.8,-1.1584552015144682,0.2268604775775184,0.9393805990606388
mp-3747,Ti3AlC2,0.120803696,4.207863175,0.0,126.0,159.0,0.05,0.19,299.88,-0.045716968803368424,-0.03953790190373357,-0.2469384695669485
mp-3822,SrCO3,0.517407133,3.635955451,0.0,30.0,60.0,0.35,0.29,77.4,0.8813599155425937,1.4541785102104607,-0.24594913324798212
mp-4230,Sc3TlC,0.19783890899999998,6.159752463999999,0.0,82.0,97.0,0.01,0.17,191.88,0.33030190832587136,-0.7335383512922938,0.9003556788776452
mp-4613,Zr2SnC,0.10734501800000001,7.123121982000001,0.0,80.0,127.0,0.08,0.24,198.4,-0.2644049946983214,-0.39834083559267397,-0.30147407863987935
mp-4798,Sc(AlC)3,0.086512425,3.272985015,0.0,138.0,166.0,0.04,0.17,322.92,-0.8393443588260857,0.131195726824193,0.5391222651105676
mp-5025,Zr2CS,0.132640451,6.013909005,0.0,112.0,165.0,0.11,0.22,273.28,-0.25876819130185846,-0.3604507568507752,-0.37328146137246154
mp-5106,TbCoC2,0.124743731,8.231613414,0.0,95.0,168.0,0.4,0.26,239.4,-0.8980782585150345,0.29644534600587474,0.29939888556343836
mp-5348,MgCO3,0.578004868,2.898973036,0.0,63.0,105.0,0.71,0.25,157.5,0.24589998392985543,1.9617625052516756,0.5099776046378548
mp-541989,Na2CN2,0.230019998,2.149228575,0.0,18.0,41.0,4.84,0.31,47.16,1.623315602698203,1.41505313976589,0.765687768517245
mp-5659,Ti3SiC2,0.11908903300000001,4.474908098,0.0,139.0,184.0,0.02,0.2,333.6,-0.3323948685891885,-0.06259162717767844,-0.1894997011388547
mp-570784,Hf2Al3C4,0.088639186,7.5595890820000005,0.0,156.0,197.0,0.04,0.19,371.28,-0.9334267843170307,0.15652093171925113,0.2509276933834516
mp-615314,ScCoC2,0.12378249699999999,5.227342152,0.0,103.0,201.0,0.67,0.28,263.68,-0.6164117404146391,-0.046475249218756544,0.20444584818640202
mp-631,TiC,0.132548146,4.879906981,0.0,176.0,253.0,0.02,0.22,429.44,-0.09292501593661821,-0.08432464536751744,-0.05860184807950717
mp-692,Tb2C,0.114480604,7.804876642999999,0.0,27.0,61.0,2.8,0.31,70.74,-0.9901981728205479,0.5525337203728485,0.4054215390092818
mp-7159,La3TlC,0.20918678899999998,7.26925063,0.0,40.0,63.0,0.01,0.24,99.2,0.26226906183298776,1.1824192676242782,2.207553497800337
mp-8044,V2PC,0.10646944,5.394856627999999,0.0,149.0,227.0,0.4,0.23,366.54,-0.41698540729217776,-0.26976987425839444,0.17473101139275796
mp-9960,Y3TlC,0.201398938,6.6876866370000005,0.0,64.0,75.0,0.02,0.17,149.76,0.42410082311714375,0.06322428039109292,0.6561069824551115
mp-999088,ThCoC2,0.139732325,9.873036294,0.0,93.0,186.0,0.31,0.29,239.94,-1.0612850305848662,0.09497478462760577,0.45334718296425297
mp-10036,Ce3AlC,0.143382178,6.346866112000001,0.0,42.0,81.0,0.17,0.28,107.52,-2.286999294330289,0.6162986276653097,2.359606515612254
mp-1025181,Tm2Cr2C3,0.200402595,8.691772497,0.0,77.0,167.0,0.64,0.3,200.2,-1.7111695713766288,-0.2287545133215634,0.886143646592594
mp-1025266,Tb2Cr2C3,0.159526965,7.969868448,0.0,68.0,149.0,0.81,0.3,176.8,-1.3178603164389129,0.8791433226715105,1.059223005111739
mp-1025379,Tb2B4C,0.11160151300000001,7.524539847000001,0.0,124.0,162.0,0.58,0.2,297.6,-1.4310931347661795,0.9310691001810388,0.7501747653314944
mp-10270,ScCo3C,0.157408118,7.010072672000001,0.0,99.0,214.0,0.26,0.3,257.4,-0.7718302931994107,-0.3415854543692518,-0.26276912835518745
mp-1029784,Rb2CN2,0.37613456100000003,3.251033572,0.0,10.0,26.0,3.32,0.33,26.6,2.2598923899577863,0.08677119581466566,2.692728999134444
mp-10408,K2CN2,0.33783533200000004,2.096868931,0.0,13.0,30.0,1.79,0.31,34.06,2.524743864292553,-0.24581468861583858,3.1732186356360117
mp-10606,Sm3TlC,0.256997686,8.540946131,0.0,48.0,62.0,0.0,0.19,114.24,1.3787170601021854,0.30709757503171975,0.5698173461289174
mp-10854,Tb(BC)2,0.092162679,6.571371002999999,0.0,126.0,180.0,0.88,0.22,307.44,-0.9700012773216791,0.5692926436104584,0.6163810468168894
mp-12317,SrCN2,0.16824794199999998,3.01144999,0.0,17.0,57.0,3.03,0.37,46.58,0.2667952659070077,1.8787218493660125,1.147550814139878
mp-13263,Ce2Mo2C3,0.138123918,7.878984335,0.0,81.0,137.0,0.36,0.25,202.5,-1.9206555254382165,0.250227379296763,2.381463755159371
mp-16297,Sc3SnC,0.120194416,4.725012085,0.0,82.0,102.0,0.04,0.18,193.52,-0.49086622593729073,-0.2514402101338077,0.05528108964627448
mp-19821,Cr2GeC,0.19946788199999999,6.955160667,0.14202906199999998,82.0,202.0,0.08,0.32,216.48,-0.5158048272328074,-0.026958095309362256,0.3974279170017573
mp-20753,CeCoC2,0.146087973,7.309879362,0.0,76.0,144.0,0.39,0.27,193.04,-1.1773840820085248,0.22130924312103373,0.9029794393637489
mp-20906,HoCoC,0.150535312,8.749995465,0.0,57.0,137.0,1.61,0.32,150.48,-0.9306080108201646,-0.3660833839434879,0.1898681917169931
mp-21017,Y3PbC,0.169376002,6.774895906,0.0,58.0,76.0,0.06,0.19,138.04,-0.4228254780642092,0.8720897472364009,0.06940895555109411
mp-21313,Mn3GaC,0.09495205699999999,7.230363272000001,0.0,115.0,208.0,0.51,0.27,292.1,-0.26339065619166274,-0.34003949662482935,-0.3787490313589213
mp-22120,YRh3C,0.136321258,9.25327076,0.0,80.0,197.0,0.0,0.32,211.2,-0.4747717877553153,0.15682329276251508,-0.2623421941042722
mp-22156,Hf2InC,0.122574675,11.27081086,0.0,92.0,130.0,0.1,0.21,222.64,-0.3091717749618399,-0.2415165077141223,-0.5946113308665109
mp-23062,YCI,0.17451607100000002,4.900237915,0.0,7.0,14.0,320.71,0.3,18.2,-0.049801440468156925,0.0176760264053155,0.16227638981118236
mp-29826,ZnCN2,0.092290325,3.1917088,0.0,24.0,73.0,1.3,0.35,64.8,-0.16091757598574635,1.0627236464234167,0.9539987745501863
mp-3732,Ti2CS,0.162565401,4.634878109,0.0,134.0,180.0,0.09,0.2,321.6,0.08204258890658858,-0.15804532078274283,-0.5202929694223764
mp-3953,CaCO3,0.493603454,2.607924056,0.0,32.0,76.0,1.4,0.31,83.84,0.44164324249640186,1.8369770426618288,0.7431189961345739
mp-4992,ScCrC2,0.15922282699999998,4.839726525,0.0,133.0,209.0,0.16,0.24,329.84,-0.49008797851007957,0.07245816988154437,0.49794824897307394
mp-505825,Cs2PtC2,0.34508484700000003,5.334606673,0.0,14.0,33.0,14.94,0.31,36.68,2.136224011428553,-1.86727719490763,2.2145963161341857
mp-5504,BaCO3,0.489277103,4.099746929,0.0,22.0,50.0,0.4,0.31,57.64,1.357118129736769,1.7967469462752883,-1.405977071204618
mp-567601,Sr4CN4,0.248099011,4.0248373410000005,0.0,23.0,51.0,0.61,0.31,60.26,1.5470948436433243,5.363181611072868,2.4722543854192565
mp-568541,Dy2B4C,0.164810298,7.773073654,0.0,122.0,163.0,0.72,0.2,292.8,-1.4676781478212477,0.373478021069472,0.6612800002555254
mp-616458,Cs2CO3,0.561095937,4.0515645739999995,0.0,7.0,20.0,1.52,0.34,18.76,3.0226003092261142,-1.0923452434432859,1.6068583448517788
mp-643367,YCBr,0.114253058,4.453038643,0.0,10.0,22.0,13.14,0.31,26.2,0.005025177549514959,-0.03508423418787935,0.21369464637358196
mp-6940,U2IrC2,0.135886989,15.22388038,0.0,51.0,195.0,1.38,0.38,140.76,-1.1194702754896702,0.03391164380018256,1.3249481842858717
mp-7814,Ta2CS2,0.115998801,8.080862406,0.0,25.0,35.0,453.23,0.21,60.5,-0.31613539488107584,0.13700797240981957,-0.3838862809572779
mp-8499,Ho2Cr2C3,0.17932542399999998,8.354270274,0.0,72.0,167.0,0.74,0.31,188.64,-1.6661805641443148,-0.19001215772817687,1.196169378132649
mp-8577,Sc3GaC,0.11832742199999999,3.991578072,0.0,85.0,100.0,0.05,0.17,198.9,-0.6083331669142187,-0.20302602972714429,0.19446080400297744
mp-8578,Sc3InC,0.129911752,4.588766124,0.0,82.0,97.0,0.0,0.17,191.88,-0.5579361808561866,-0.2238124004769162,-0.039476982115770894
mp-9166,MgCN2,0.10881939300000001,2.385824698,0.0,35.0,96.0,5.75,0.34,93.8,-0.36866466570573053,2.3863058444072265,1.9034775520257143
mp-9812,ZnCO3,0.572758872,4.244193742,0.0,49.0,117.0,0.48,0.32,129.36,0.45364707364983986,0.6381803072678646,-0.43950117283767437
mp-9880,YB2C,0.124591622,4.692792354,0.0,140.0,177.0,0.29,0.19,333.2,-0.5154380827432885,0.3640086025307705,0.26200789694210813
mp-9957,V2GeC,0.12456377800000001,6.470529407000001,0.0,101.0,180.0,0.38,0.26,254.52,-0.4497904979897331,-0.2894813497103592,-0.017315646238231026
mp-996161,Nb3AlC2,0.10335772300000001,6.7024893489999995,0.0,137.0,203.0,0.07,0.22,334.28,0.593874186028114,0.93890104166309,-1.0907549671418109
mp-1025183,Ho2B4C,0.133525342,7.966367758,0.0,128.0,164.0,0.65,0.19,304.64,-1.7794133824715814,-0.13808638021864894,0.887121138352404
mp-1029375,BaCN2,0.190826393,3.498344482,0.0,11.0,48.0,3.95,0.39,30.58,0.7425534801011825,2.2212902854308414,-0.012477123816757094
mp-1029699,Cs2CN2,0.35444542799999995,3.4693313339999996,0.0,4.0,18.0,3.34,0.39,11.12,2.408035659590528,-0.6678019042877337,3.0003582922396395
mp-10343,Sc2BC2,0.106054454,3.474998523,0.0,71.0,138.0,3.84,0.28,181.76,-0.6787192486537363,0.0892773646251517,0.47970765119266157
mp-10608,Y3SnC,0.141478401,5.609966823,0.0,63.0,82.0,0.07,0.2,151.2,-0.39706731114601884,0.5453224215495788,-0.1889676067762583
mp-10611,La3PbC,0.182399385,7.3326813789999985,0.0,47.0,69.0,0.08,0.22,114.68,-0.5846572393483656,1.991284734469587,1.6208554708963194
mp-10712,ScRh3C,0.11859820800000001,8.768933213,0.0,90.0,215.0,0.08,0.32,237.6,-0.5060380926857401,-0.10876425113194689,-0.18092596196342856
mp-10714,TmRh3C,0.149888943,11.27552296,0.0,82.0,207.0,0.01,0.32,216.48,-0.9843592382549934,-0.3197925739038531,-0.17251260384596356
mp-10969,CdCN2,0.13859328,4.596316687,0.0,25.0,86.0,1.82,0.37,68.5,0.15039433907844507,1.1499584455922907,0.5919976638247078
mp-12990,Ti2AlC,0.117383554,3.9931009989999997,0.0,112.0,137.0,0.02,0.18,264.32,-0.03681025810121567,-0.13155003874489435,-0.23976093425585832
mp-20350,DyCoC,0.177834677,8.53903468,0.0,57.0,136.0,1.79,0.32,150.48,-0.7747403934949976,-0.11030118329942747,0.07694762266855333
mp-21003,Y2ReC2,0.133203472,7.687495087,0.0,74.0,124.0,0.29,0.25,185.0,-0.5884437674226977,0.5481929713704178,0.0027013228690315415
mp-21023,Ti3SnC2,0.128994251,5.906377008,0.0,112.0,158.0,0.03,0.21,271.04,0.06749907480797315,-0.10392326268348091,-0.4556631220008841
mp-21035,Sc3PbC,0.155073298,6.182344982,0.0,76.0,97.0,0.03,0.19,180.88,-0.5166243928554823,0.07532711555301481,0.3136576519736269
mp-21422,YCoC,0.147149473,5.808143712000001,0.0,60.0,143.0,1.67,0.32,158.4,-0.4435150639366438,0.0911613049261867,-0.054974264311342495
mp-22394,ThRu3C,0.11898601,11.98890699,0.0,105.0,223.0,0.06,0.3,273.0,-1.1042523831523927,-0.30249334220878427,0.22086522155332355
mp-22793,AlFe3C,0.17341104699999998,6.473381428,0.0,98.0,230.0,0.97,0.31,256.76,-0.9205297407914648,-0.0033448812861666985,0.5667585332842257
mp-22793,AlFe3C,0.17341104708130356,6.473381427944479,0.0,98.0,230.0,0.97,0.31,256.76,-0.9205297407914648,-0.0033448812861666985,0.5667585332842257
mp-28479,Sc2CCl2,0.095106064,2.758216961,0.0,14.0,20.0,206.08,0.21,33.88,0.33377936141826076,-0.5876138153410992,0.7453177035749328
mp-30161,Si2CN4,0.059473705,2.181959777,0.0,30.0,128.0,141.05,0.39,83.4,-0.7551900320428919,2.179796839823574,1.9877119318027554
mp-3871,Ti2SnC,0.127594033,6.244640757000001,0.0,92.0,135.0,0.01,0.22,224.48,0.07640578551012576,-0.19593539952464167,-0.4484855866897938
mp-4124,CaCN2,0.14150238099999998,2.237002426,0.0,22.0,69.0,3.45,0.35,59.4,-0.17292140713918433,2.26152038181738,2.1366189435224334
mp-4385,CdCO3,0.508335701,4.744605815,0.0,32.0,91.0,0.75,0.34,85.76,0.7649589887140309,0.7254151064367389,-0.8015022835631543
mp-5383,NdNiC2,0.199520705,7.069543236,0.0,86.0,172.0,0.34,0.29,221.88,-0.7784511175076427,0.3091179912509854,0.3039402942796862
mp-5443,Nb2SnC,0.110208031,8.127472796000001,0.0,79.0,160.0,0.17,0.29,203.82,0.5027998887311141,0.4563572295199074,-1.011029918406368