mp_id,Formula,IPF,Density,E_above_Hull,G_VRH,K_VRH,Elastic_Anisotropy,poisson_ratio,Y_Modulus,PC 1,PC 2,PC 3
mp-1326,Nb3Sn,0.122832766,8.694217983,0.0,22.0,164.0,0.1,0.44,63.36,0.9903509727345976,0.6186137013843055,-1.6554873802895473
mp-1359,NbIr,0.129094221,14.60515987,0.0,105.0,259.0,0.82,0.32,277.2,0.1416487661798732,-0.0029965177110041125,-0.5791755320573184
mp-13686,Nb5Si3,0.103422994,6.967600826,0.0,123.0,194.0,0.04,0.24,305.04,0.5557248486575908,1.1716797286320133,-2.1993089266406054
mp-13967,Nb5(CuSi)4,0.123542518,7.278267339,0.0,98.0,179.0,0.22,0.27,248.92,-0.10278116348117064,0.3995114765160321,-3.5864179709482165
mp-1451,NbNi3,0.148317158,8.950269432999999,0.0,77.0,211.0,0.4,0.34,206.36,-0.26634164653982995,0.15406215818997418,-0.24810327544201438
mp-1458,Nb3Ir,0.126407635,11.22804606,0.0,104.0,223.0,0.57,0.3,270.4,0.8334901910916981,0.5774184055168297,-1.5120826951098758
mp-1545,Nb3Rh,0.124184961,9.086567728,0.0,89.0,204.0,0.74,0.31,233.18,0.8938167701383235,0.6883130626783519,-1.568109549975677
mp-1606,NbAu2,0.23612686800000002,15.18308488,0.0,64.0,175.0,1.15,0.34,171.52,0.12316518349773005,-0.16499461927437908,-0.9774955947001654
mp-1842,NbAl3,0.096283695,4.501843442,0.0,105.0,127.0,0.17,0.18,247.8,0.03207569819140062,0.08001105799818127,-0.5058109058197741
mp-18427,Nb2Al,0.113506464,6.789453727000001,0.0,82.0,161.0,0.07,0.28,209.92,0.5312142166673439,0.39279160055013607,-0.9803091463293335
mp-1932,Nb3Os,0.118099291,11.20767839,0.0,91.0,223.0,0.71,0.32,240.24,0.7816936763141353,0.4782740666232025,-1.7279669928907706
mp-1963,NbRh,0.125687509,10.11175654,0.0,79.0,220.0,1.43,0.34,211.72,0.2019753452264993,0.10789813945051824,-0.6352023869231195
mp-1969,NbSb2,0.102260873,8.046465944,0.0,69.0,97.0,0.4,0.21,166.98,-0.05101921107491346,-0.03953020749365292,-0.6190221612878413
mp-1973,NbGa3,0.12104822400000001,7.758692646,0.0,87.0,122.0,0.19,0.21,210.54,0.019323006094641767,0.03209751687893001,-0.7144457200514731
mp-2053,Nb3Sb,0.12440919199999999,8.873377465,0.0,82.0,174.0,0.23,0.3,213.2,0.7972830229850915,0.6175851591836269,-1.5013571908438264
mp-2059,NbAs,0.09841300800000001,7.8052316789999985,0.0,88.0,162.0,0.66,0.27,223.52,0.31260939566112594,0.0192786853399876,-0.6173691979877217
mp-20689,Nb3B2,0.116680646,7.752632753999999,0.0,168.0,240.0,0.04,0.22,409.92,0.7332963511604556,0.883553292537167,-1.2784084441861459
mp-2123,Nb3Au2,0.189810615,12.332301600000001,0.0,61.0,173.0,0.26,0.34,163.48,0.815006608409555,0.41542030395345464,-1.9104027577527223
mp-22722,NbSiPd,0.119433554,8.188774737000001,0.0,81.0,195.0,0.52,0.32,213.84,-0.0843423408776686,-0.029401220806871346,-0.6099470940517313
mp-2311,NbO,0.41435504799999995,7.010466903999999,0.0,140.0,243.0,0.54,0.26,352.8,0.49959599882177863,0.35516676031483163,-0.6926761820281812
mp-24154,NbH2,0.096473437,6.5840746060000015,0.0,81.0,178.0,0.02,0.3,210.6,0.110160972194838,1.206781042377144,0.4525771579526646
mp-2478,NbSi2,0.081770639,5.578318615,0.004182222,140.0,175.0,0.05,0.18,330.4,-0.4646711983702245,0.045190147919310135,-0.39495569845522616
mp-2580,NbB,0.112081368,7.429359322000001,0.0,197.0,264.0,0.08,0.2,472.8,0.1516786667350393,0.20850452435728595,-0.43168958771414134
mp-2634,NbN,0.150972156,7.984187205,0.0,211.0,313.0,0.16,0.23,519.06,0.3111604698041509,0.6880864703474039,-0.08332535220099425
mp-2663,Nb3Pt,0.129165596,11.15047725,0.0,80.0,207.0,0.68,0.33,212.8,0.9220786806842758,0.5152909041479885,-1.5454458296222042
mp-274,Nb5Sb4,0.108535151,8.117054467,0.0,55.0,98.0,1.11,0.26,138.6,1.019742020452377,0.9678987520631228,-2.5859807543861
mp-27793,Nb2Se,0.157465587,7.711559449,0.0,57.0,122.0,0.19,0.3,148.2,0.7528411999173753,0.24569923847936298,-0.989437820031014
mp-29950,Nb3Cl8,0.082174685,3.360949549,0.0,8.0,14.0,81.6,0.24,19.84,3.996321824285347,-1.1229397784256692,0.6684238999316539
mp-30441,Be17Nb2,0.11411839900000001,3.338361571,0.0,152.0,140.0,0.05,0.1,334.4,0.2148497427134178,-0.442521411374265,-1.8109826301506735
mp-30798,NbZn2,0.17597048699999998,8.152689628,0.0,82.0,141.0,0.01,0.26,206.64,0.1943323584832115,0.039226393401727226,-0.6012496487460937
mp-363,NbGe2,0.12357580300000001,7.967848054,0.0,105.0,142.0,0.09,0.2,252.0,-0.22960709263364856,0.015310828105582272,-0.5717686062454612
mp-432,NbRu,0.108762125,9.95447607,0.0,53.0,237.0,0.04,0.4,148.4,0.1508616784610236,-0.0038282355238813594,-0.5842391040101533
mp-450,NbB2,0.103131325,6.793797917999999,0.0,195.0,287.0,0.28,0.22,475.8,0.04145492624863102,0.30313836930933374,-0.3455012811335884
mp-557057,NbO2,0.521744642,5.6752529979999995,0.0,80.0,206.0,0.28,0.33,212.8,0.7372895904221097,0.5964628412244252,-0.8674744697616674
mp-568912,Be12Nb,0.111921781,2.9577772760000003,0.0,138.0,133.0,0.23,0.12,309.12,-0.015490564753099496,-0.48372900463717555,-1.101396356174484
mp-571133,NbSe2,0.14792813400000002,5.587610023,0.0,13.0,22.0,29.28,0.25,32.5,0.551938567701479,-0.20288712567434636,-0.5280905827147756
mp-640041,NbZn16,0.185013342,7.295698646,0.0,33.0,85.0,0.63,0.33,87.78,-0.27865798268443687,-0.48328360862285014,-1.1848519299058844
mp-669692,NbPd3,0.15704971,10.82978148,0.0,79.0,196.0,0.19,0.32,208.56,0.31302857131160683,-0.21292422400219752,-0.978468787325008
mp-7250,Nb6Co7,0.14981988599999999,8.885808435,0.0,95.0,213.0,0.18,0.31,248.9,0.9518347343378083,0.9798507335714033,-3.8623846385724954
mp-7597,NbSe2,0.149909294,5.662443325,0.9910275,13.0,22.0,32.7,0.25,32.5,0.551938567701479,-0.20288712567434636,-0.5280905827147756
mp-7598,NbAs2,0.08503179599999999,7.264790629,0.0,90.0,124.0,0.27,0.21,217.8,0.3633163841008054,-0.07531330872526322,-0.7168605016807483
mp-864992,MnNbRu2,0.0975975,9.661758778,0.0,88.0,220.0,0.55,0.32,232.32,0.054193556689259306,-0.20965914489419046,-0.7972023105128817
mp-865248,TmNbRu2,0.147691291,11.12462904,0.0,74.0,178.0,0.41,0.32,195.36,-0.5391084257875128,-0.37501631203353464,-0.5977190072747844
mp-865255,LuNbRu2,0.13056416699999998,11.4106784,0.0,78.0,184.0,0.33,0.31,204.36,-0.14935213243596582,-0.21448588131935603,-0.49162830442778793
mp-865278,NbAlOs2,0.10117850199999999,13.66563839,0.0,130.0,262.0,0.0,0.29,335.4,-0.15880680742684133,-0.3294389330835202,-1.0682194358900914
mp-867146,ScNbRu2,0.117382902,8.682952113999999,0.0,91.0,195.0,0.2,0.3,236.6,-0.06078728021825979,-0.16398798926162886,-0.6061323653922492
mp-9339,NbP,0.093340274,6.3864906710000025,0.0,109.0,188.0,0.41,0.26,274.68,0.048952747991454146,0.0843022292073751,-0.3527765926390898
mp-953,NbZn3,0.17669882,7.802320965,0.0,71.0,119.0,0.39,0.25,177.5,0.16054733411409344,0.001904250399971824,-0.6429355259717934
mp-977434,Nb3Ru,0.119591269,9.267233068,0.0,94.0,201.0,0.22,0.3,244.4,0.8427031033728486,0.576586687703952,-1.5171462670627105
mp-999376,NbPt,0.13530971,14.39648001,0.0,115.0,223.0,0.12,0.28,294.4,0.23023725577245077,-0.06512401907984507,-0.6125386665696477
mp-1025396,NbTl3Se4,0.187830432,6.44222176,0.0,41.0,37.0,0.15,0.1,90.2,3.4153005527749776,-2.1929550579756887,1.3828135277323688
mp-1029832,Ca2NbN3,0.186649607,3.731767685,0.0,-1.0,79.0,-9.38,0.51,-3.02,0.3180988839244474,4.159467237016147,3.0676483154795013
mp-10366,Nb2Co3Si,0.14166842,8.371822234,0.0,113.0,228.0,0.21,0.29,291.54,-0.20103706961699047,0.11899905217472662,-1.3566870221782736
mp-10469,NbSiPt,0.110861026,11.28890695,0.0,81.0,215.0,0.17,0.33,215.46,-0.13304954702338465,-0.09946428482280907,-0.5510775686499133
mp-10470,NbSiRh,0.10469607199999999,8.279822034,0.0,112.0,221.0,0.28,0.28,286.72,-0.1613114575693359,0.07355787370755425,-0.5737412890033851
mp-11537,NbAlRu2,0.100781187,8.956131445,0.0,117.0,231.0,0.01,0.28,299.52,-0.03678795330941515,-0.13281369092202053,-0.6465779842339713
mp-14827,Li7NbN4,0.232654576,2.7375651839999997,0.0,64.0,82.0,0.54,0.19,152.32,1.0294632916574322,4.697171528986698,1.6921732959316678
mp-17177,Nb2ZnO6,0.538156933,5.373026239,0.0,57.0,141.0,0.17,0.32,150.48,2.000199644910229,1.814532483474959,-2.0748070794475897
mp-17701,Sr2NbN3,0.22697701399999998,4.729103908,0.0,38.0,71.0,0.35,0.28,97.28,1.1975322300168314,3.3938701721134183,1.0895120567143934
mp-21907,NbSiAs,0.084685916,6.601363588,0.0,104.0,153.0,0.14,0.22,253.76,-0.050677407134709175,-0.015061580402976544,-0.5559081000679869
mp-22287,NbGeIr,0.127296601,12.40314113,0.0,93.0,224.0,0.21,0.32,245.52,-0.10410598374767449,-0.05227644336083202,-0.6061208880327011
mp-23051,NbSeI,0.186624855,6.045157061,0.0,-20.0,42.0,-5.68,0.79,-71.6,0.6521096487637785,-0.20157310935591374,-0.45033913247455465
mp-28938,Nb3TeCl7,0.102611476,3.7290774030000002,0.0,8.0,13.0,81.21,0.25,20.0,3.6189986406025128,-1.0577358559613226,0.3380708838041409
mp-29057,Nb3SBr7,0.096049828,4.63585335,0.0,9.0,13.0,38.92,0.21,21.78,3.0960982313709735,-0.8122722475756771,-0.8588512248740682
mp-3020,BaNbO3,0.576061251,6.443755471,0.0,90.0,167.0,0.13,0.27,228.6,1.8446692137402525,1.9590034181396865,-2.050434533087796
mp-33581,Ba9Nb10O30,0.564409951,6.2101490770000005,0.0,93.0,170.0,0.14,0.27,236.22,18.3331708527949,20.0558207252693,-19.033364740369574
mp-3731,LiNbO3,0.5482423670000001,4.412866666,0.0,57.0,102.0,0.28,0.26,143.64,1.0564872726088943,1.1643928772501324,-0.9748668972306445
mp-3924,LiNbO2,0.558456335,5.52702232,0.0,100.0,154.0,1.22,0.23,246.0,0.8187936810085626,0.9230967963405392,-0.8000686094971585
mp-505297,NbSbRu,0.09916279300000001,8.790458586,0.0,66.0,168.0,0.0,0.33,175.56,-0.0055991306871564115,-0.08052867897332709,-0.6348112375067262
mp-505517,BaNb4O6,0.490950803,6.721871925,0.0,109.0,185.0,0.32,0.25,272.5,3.5955121259089817,3.5535140457102146,-3.974190140867088
mp-5246,KNbO3,0.615007038,4.360499831,0.133752,63.0,103.0,1.28,0.25,157.5,2.300921389977031,0.16482868311351279,0.04649423443490858
mp-553961,ScNbO4,0.534721541,4.62789057,0.0,61.0,167.0,0.77,0.34,163.48,1.1120685437039126,1.0365941642349839,-1.172603096895277
mp-570558,Rb2NbCl6,0.19177160399999998,2.887440469,0.0,4.0,10.0,0.51,0.31,10.48,4.930860842909919,-2.262322949999323,2.768573171023043
mp-571513,Rb2NbCl6,0.186891749,2.8139661289999998,0.39928444399999996,4.0,10.0,0.51,0.31,10.48,4.930860842909919,-2.262322949999323,2.768573171023043
mp-7596,NbNO,0.351904011,6.119908709,0.0,109.0,237.0,0.55,0.3,283.4,0.5488540614044828,0.9293825512569971,-0.2581236399344801
mp-7829,MnNbSi,0.09863739099999999,7.0099979260000005,0.0,105.0,209.0,0.7,0.28,268.8,-0.08701178858572957,-0.008601580778914764,-0.6030187931622313
mp-7936,LiNbS2,0.172512206,4.242441144,0.0,57.0,83.0,0.24,0.22,139.08,0.4278943858034777,0.36494098950761766,-1.0034914453799413
mp-8615,NbBO4,0.652092288,5.028561988,0.0,141.0,252.0,0.74,0.26,355.32,1.1024530331363647,1.173688847995659,-1.1308827386480866
mp-864672,NbSiTc2,0.107955842,8.897149752,0.0,87.0,241.0,0.06,0.34,233.16,-0.1761889239592923,-0.40564019456891837,-1.1025903252627967
mp-864831,NbZnRh2,0.14238593800000002,9.978124683999999,0.0,-66.0,203.0,-6.12,0.68,-221.76,0.10826325886243376,0.06460345649404287,-0.7942127567772438
mp-866112,HoNbRu2,0.134842841,10.89370047,0.0,68.0,177.0,0.55,0.33,180.88,-0.5166139221713556,-0.35564513423684135,-0.4427061415047572
mp-867786,ScNbOs2,0.118226784,13.10170965,0.0,114.0,226.0,0.05,0.28,291.84,-0.18280613433568632,-0.36061323142312857,-1.0277738170483701
mp-867919,ErNbRu2,0.133496601,11.01218075,0.0,71.0,180.0,0.46,0.33,188.86,-0.5324561843247844,-0.12572832374782159,-0.6715428544851554
mp-9586,NbSnS2,0.12133852699999999,5.335198709,0.0,30.0,71.0,4.01,0.31,78.6,0.3829974358183508,-0.03736486685726319,-1.2755996285867455
mp-977401,NbGaRu2,0.109324053,10.08234103,0.0,105.0,193.0,0.0,0.27,266.7,-0.04103885067500106,-0.14878487129510423,-0.7161229223112039
mp-977534,ZrNbTc2,0.123039323,9.255031964,0.0,92.0,246.0,0.39,0.33,244.72,0.14941614957773883,-0.5084414997683284,-1.2757270848255635
mp-977555,MgNbRh2,0.13385766699999999,8.509189719,0.0,0.0,216.0,-10.04,0.5,0.0,-0.09948383085755076,1.3881856544778535,0.15526602069828435
mp-977563,LiNbIr2,0.154699169,13.65006744,0.0,98.0,279.0,0.26,0.34,262.64,0.10289921572475236,0.20677024028886762,-0.5730673095554327
mp-982725,Nb2RuW,0.11598413,11.74882527,0.0,113.0,200.0,0.16,0.26,284.76,1.0248087598003333,0.2324897887794708,-0.9089322477451179
mp-1029502,Ba(NbN2)2,0.19072403699999999,5.298203066,0.0,29.0,31.0,0.1,0.15,66.7,1.6745414017259865,3.8221858007934855,-0.2542830830388134
mp-1029903,LiNbN2,0.153143623,4.359774617,0.0,58.0,112.0,1.71,0.28,148.48,0.4419226229733079,1.5889362164056846,0.4186330501572166
mp-12647,TbNbO4,0.515881812,6.800064763,0.0,54.0,136.0,0.83,0.32,142.56,0.830402025603517,1.379514759459615,-1.0776500595182406
mp-20279,NbInSe2,0.148583667,6.219207227,0.0,20.0,44.0,5.77,0.31,52.4,0.5214757533839111,-0.250931217266222,-0.8275509774191147
mp-20335,MnNbP,0.10425261300000001,7.462931908,0.0,100.0,228.0,0.68,0.31,262.0,0.06332535498011307,-0.0038297652338140234,-0.49937858942635993
mp-21248,NbSiIr,0.10700322699999999,11.48774668,0.0,121.0,244.0,0.17,0.29,312.18,-0.22163803661596204,-0.03733678345396816,-0.5177144341375841
mp-21449,NbCoP,0.12731991199999998,7.877527057000001,0.0,117.0,238.0,0.1,0.29,301.86,-0.09957171417471745,0.000722621506886805,-0.49738214073143433
mp-4043,NbCu3Se4,0.143236804,5.344951145,0.0,22.0,33.0,0.39,0.22,53.68,0.6205603211743161,-1.073015920533694,-1.624730877805366
mp-4364,NbGaCo2,0.14919867,8.743219427,0.0,79.0,194.0,0.84,0.32,208.56,-0.11600631748649765,-0.08054625683784072,-0.8726115990649776
mp-5370,ErNbO4,0.540063706,7.195147262000001,0.0,58.0,147.0,0.76,0.33,154.28,0.6403996395973873,1.074853829748791,-1.238013585988184
mp-5387,YNbO4,0.5279940870000001,5.316367767,0.0,51.0,132.0,1.05,0.33,135.66,1.1433348486343364,1.3021817081294462,-1.254019329036122
mp-549720,NbI2O,0.23851397100000002,5.133429312,0.0,8.0,13.0,35.29,0.23,19.68,0.9899743214264091,0.041036987872112685,-0.5473859699678205
mp-5621,NbCu3S4,0.12209286300000001,4.041801788,0.0,25.0,40.0,0.81,0.24,62.0,0.20946377620540876,-0.5906276004019938,-2.710344323664717
mp-7557,Nb5SiSn2,0.11546914900000001,8.235170019,0.968512708,83.0,162.0,0.17,0.28,212.48,1.3555127354519132,1.0890164576204084,-2.7316357683646646
mp-768342,SrNb2O4,0.493796653,5.791987934,0.0,72.0,148.0,2.01,0.29,185.76,1.9525253036023205,2.1479385245983704,-1.531658464390924
mp-7937,NaNbS2,0.199825423,4.103609345,0.0,48.0,75.0,0.2,0.24,119.04,1.2216143723744408,0.19581070956186267,-1.1858957472737715
mp-7939,NaNbSe2,0.210178484,5.440617507000001,0.0,38.0,61.0,0.13,0.24,94.24,1.4271626448588943,-0.045383450503987795,-0.6430890243440965
mp-864639,Ta2NbOs,0.12090143199999999,15.781759599999999,0.0,104.0,244.0,0.1,0.31,272.48,-0.08512235469230688,0.15881655327808278,-0.7525062670342194
mp-864640,Ta2NbIr,0.12938278,15.789285099999999,0.0,107.0,237.0,0.12,0.3,278.2,-0.033325839914744235,0.2579608921717101,-0.5366219692533243
mp-864651,Ta2NbRu,0.120207751,13.63375391,0.0,92.0,225.0,0.2,0.32,242.88,-0.024112927633593392,0.2571291743588327,-0.5416855412061586
mp-864669,NbGeRu2,0.110003857,10.11292528,0.0,70.0,225.0,-4.94,0.36,190.4,-0.2059338002269475,-0.17080707610282955,-0.6775456697009943
mp-864840,NbZnRu2,0.12665369099999998,9.996395114,0.0,77.0,218.0,0.64,0.34,206.36,0.0060359253314829844,-0.15884929345475693,-0.6922861909513102
mp-864857,NbZnCo2,0.17142919199999998,8.770584948,0.0,56.0,185.0,3.02,0.36,152.32,-0.06893154148001365,-0.09061067899749331,-0.8487748677050845
mp-865653,TiNbRe2,0.124416023,13.37431832,0.0,115.0,254.0,0.04,0.3,299.0,0.22966432983442922,0.12268055431365917,-1.1590304248854633
mp-866026,ErNbOs2,0.134104194,15.11136385,0.0,86.0,211.0,0.06,0.32,227.04,-0.6544750384422103,-0.322353565909321,-1.0931843061412765
mp-867828,BeNbRu2,0.10077746,9.103517464,0.0,71.0,231.0,0.0,0.36,193.12,0.016704868702721844,-0.17132712412320272,-0.6992268522155934
mp-977430,MgNbRu2,0.119172383,8.547752408,0.0,79.0,228.0,0.03,0.34,211.72,-0.20171116438850126,1.1647329045290538,0.25719258652421884
mp-991676,NbCu3Te4,0.21242860100000002,6.157085005,0.0,20.0,30.0,0.02,0.23,49.2,0.05248426155895454,-1.0872973110465087,-1.8661130868358016
mp-1018022,NbInS2,0.135004947,5.300545939,0.0,26.0,52.0,3.88,0.28,66.56,0.3159274808994558,-0.00973705720037165,-1.3703577003487915
mp-1029422,NbZn2N3,0.142520321,5.634994044,0.0,53.0,139.0,0.03,0.33,140.98,0.3421065462313232,1.7618737662282242,0.7024079775350092
mp-19746,NbPbS2,0.155739256,6.755714455,0.0,26.0,69.0,6.69,0.33,69.16,0.3572392689001595,0.2894024588295591,-1.0172230662593937
mp-20932,NbNiP,0.11992443900000001,7.72927969,0.0,98.0,218.0,0.14,0.3,254.8,-0.1271286032623046,0.09769938880228679,-0.26285171968819576
mp-27927,NbAlO4,0.506144688,4.164169894,0.0,74.0,172.0,0.39,0.31,193.88,1.136067870612757,1.0677684625745922,-1.2130487157369994
mp-28150,BaNb2O6,0.52296181,5.294185787,0.0,35.0,88.0,4.41,0.33,93.1,2.9036707009971567,2.973099122482381,-3.0412829778145327
mp-28357,NbHg3F6,0.19061445800000001,7.237400469,0.0,3.0,23.0,22.8,0.44,8.64,4.429275282287404,-3.010885335005237,2.833592091240995
mp-3144,HoNbO4,0.537110744,7.078433398,0.0,59.0,149.0,0.59,0.33,156.94,0.6562419017508162,0.8449370192597714,-1.0091768730077852
mp-3283,RbNbO3,0.50694222,4.088579159,0.0,18.0,39.0,1.44,0.3,46.8,2.1684956528096477,0.3311216253287649,-0.19375058381587487
mp-3744,NaNbO2,0.564578351,5.414801144,0.0,97.0,146.0,0.5,0.23,238.62,1.6125136675795246,0.753966516394784,-0.9824729113909885
mp-4500,ZrNbP,0.109448315,6.893886775,0.0,99.0,174.0,0.28,0.26,249.48,0.01127101873264855,-0.05283934173499879,-0.4644522542821241
mp-4813,NbAlNi2,0.129781473,7.312634987999999,0.0,45.0,181.0,3.21,0.39,125.1,-0.16686919829608635,0.12937845812604318,-0.3340058189012676
mp-540924,NbTeI3,0.187893153,5.026952627,0.0,1.0,6.0,-12.87,0.43,2.86,1.0004689564645701,-0.519273229426837,-0.3653944726718016
mp-550070,NbBr2O,0.164098556,4.452127603,0.0,12.0,11.0,-9.7,0.09,26.16,1.099627557461752,-0.06448353331427754,-0.4445494568430216
mp-606393,NbBr3O,0.135678751,4.064234461,0.0,4.0,8.0,8.77,0.28,10.24,1.39964333678174,-0.27430868012883214,-0.32048609425044167
mp-7375,KNbO3,0.616168746,4.368736534,0.0,41.0,103.0,4.1,0.33,109.06,2.300921389977031,0.16482868311351279,0.04649423443490858
mp-752467,NbO2F,0.342496129,3.9853654389999997,0.0,53.0,101.0,1.64,0.28,135.68,1.146010370045315,0.34083436035312126,-0.5079215285949187
mp-7601,NbGaO4,0.482332651,4.819142822,0.0,59.0,163.0,0.29,0.34,158.12,1.1318169732471708,1.0517972822015083,-1.2825936538142322
mp-864631,LiNbRh2,0.15114825199999998,8.690848167999999,0.0,65.0,175.0,0.11,0.33,172.9,0.22355237381800425,0.42855955461191264,-0.6851210192870356
mp-864788,NbInRu2,0.125693975,10.42212331,0.0,95.0,208.0,0.03,0.3,247.0,0.009358135383031561,-0.16957124204487603,-0.950060708429952
mp-865241,TmNbOs2,0.14839128,15.27276005,0.0,88.0,204.0,0.11,0.31,230.56,-0.6611272799049392,-0.5716415541950344,-1.019360458930905
mp-865655,TiNbTc2,0.13246080400000002,8.908701472,0.0,96.0,222.0,0.28,0.31,251.52,0.31982153968196125,-0.4072387817343119,-1.349232838850522
mp-865857,YbNbRu2,0.150517793,11.62432815,0.0,64.0,164.0,0.59,0.33,170.24,-0.7610609929694442,-0.13529304358368935,-0.3063947275651822
mp-867795,ScNbTc2,0.130076931,8.355342749,0.0,66.0,186.0,0.24,0.34,176.88,0.08648964891768307,-0.41376076763458147,-1.1195834748491684
mp-8994,Rb2NbF6,0.301948686,3.8319813330000003,0.0,11.0,23.0,0.15,0.3,28.6,5.101252026535091,-2.4331747994330915,3.336484100064354
mp-8995,Cs2NbF6,0.32736808300000003,4.226923113,0.0,9.0,20.0,0.43,0.31,23.58,5.249395296167834,-3.1877478995354913,3.644113393169551
mp-9595,NbInO4,0.51869494,5.954351129,0.0,59.0,161.0,0.44,0.34,158.12,1.182213959305204,1.0310109114517358,-1.5165314399329803
mp-972323,TaNbTc2,0.123370157,11.97658369,0.0,108.0,195.0,0.44,0.27,274.32,0.09961057578923492,-0.2408212238845972,-1.142774641780534
mp-9808,Rb3NbO8,0.591649305,3.697465904,0.0,12.0,27.0,0.82,0.3,31.2,5.743988552385718,0.524327436266225,0.6293023248752512
mp-549490,KNb4O5F,0.44493007,5.59473081,0.0,84.0,139.0,1.0,0.25,210.0,4.222791490168636,1.2624147489031459,-1.3429101444441498
mp-7251,Ba2YNbO6,0.541216102,5.840609635,0.0,77.0,134.0,0.22,0.26,194.04,3.3580940952706206,4.027262861959969,-3.6199394556883786