mp_id,Formula,IPF,Density,E_above_Hull,G_VRH,K_VRH,Elastic_Anisotropy,poisson_ratio,Y_Modulus,PC 1,PC 2,PC 3
mp-1025456,CaZrF6,0.110079996,2.5365237919999997,0.0,23.0,57.0,6.89,0.32,60.72,2.284835787723406,-0.6857746459866677,3.1351519643355887
mp-1029267,CaZrN2,0.20259179600000002,4.887887678,0.0,123.0,162.0,0.07,0.2,295.2,-0.06897276485041876,1.9964278211254873,1.8469394015225
mp-1029580,Sr4ZrN4,0.24961296100000002,4.545152764,0.0,29.0,71.0,1.4,0.32,76.56,1.651043485932089,5.098089050380975,2.182574843419324
mp-11366,ZrZnCu2,0.16840644,7.826255815,0.0,43.0,122.0,1.02,0.34,115.24,-0.3030946635338514,-0.7197144893393165,-0.9290709227508236
mp-12760,Zr6Al2Co,0.111969945,5.999277823,0.0,51.0,106.0,0.01,0.29,131.58,-0.6118509489735003,-1.1053388965014488,-0.8580391717356826
mp-12951,ZrGaAu,0.16958185899999995,10.46106834,0.0,62.0,125.0,0.16,0.29,159.96,-0.271928446730731,-0.4801687233329636,-0.45843143319977875
mp-13946,Rb2ZrF6,0.296969035,3.725273347,0.0,10.0,22.0,0.31,0.3,26.0,4.7176495848203714,-2.8605238319893806,3.6912620199476005
mp-15985,Zr3(Cu2Ge)2,0.145052489,7.700253096,0.0,71.0,133.0,0.47,0.27,180.34,-0.9837922022089038,-1.4241493327084724,-1.8889121518756322
mp-20147,ZrMnP,0.10175098199999999,6.646876783,0.0,111.0,175.0,0.25,0.24,275.28,-0.3202770867346051,-0.43117879779010476,-0.1446006695431154
mp-30019,ZrCu2Te3,0.22521032600000002,6.521758271,0.0,21.0,39.0,0.37,0.27,53.34,-0.2603124431562073,-1.168240096841549,-1.0837407349280714
mp-3104,BaZrN2,0.248182065,5.679937354,0.0,40.0,100.0,1.48,0.32,105.6,0.8465021223899483,1.9561977247389482,-0.302156665816691
mp-31457,ZrSbRu,0.09773365699999999,8.129977663,0.0,47.0,136.0,0.05,0.35,126.9,-0.38920157240187414,-0.5078777115296179,-0.2800333176234813
mp-3208,ZrGeTe,0.20057197699999998,7.1176450120000005,0.0,44.0,58.0,4.08,0.2,105.6,-0.3644557190846442,-0.5247075289688764,-0.2554972268544839
mp-3909,ZrAlCo2,0.13783715900000001,6.969839081,0.0,78.0,161.0,0.04,0.29,201.24,-0.4953578618356292,-0.4919241090210474,-0.4482887411044997
mp-3938,ZrSiS,0.11947463,4.860704661000001,0.0,86.0,125.0,0.28,0.22,209.84,-0.442742893291317,-0.38560044140088395,-0.37814858216659386
mp-4002,Li2ZrF6,0.16714367300000002,3.459404914,0.0,35.0,58.0,0.38,0.25,87.5,2.4936328244188664,-1.1939813281466476,2.129029393118059
mp-4022,Zr2CoSi2,0.105964095,6.125214733,0.0,95.0,151.0,0.24,0.24,235.6,-1.0344798315099195,-0.6028800632798426,-0.2964589883073608
mp-4075,TbZrSb,0.117486385,8.043920819,0.0,38.0,80.0,0.95,0.3,98.8,-0.6604355916607065,-0.08971904018449381,-0.07425112219762449
mp-4408,Sm2Zr2O7,0.516629302,6.419635082,0.0,87.0,162.0,0.0,0.27,220.98,2.0022003521300653,1.8472882488724807,-1.6297866420213147
mp-4628,ZrSiSe,0.13538398599999998,5.801912408,0.0,61.0,85.0,3.37,0.21,147.62,-0.33996875704909035,-0.5061975214338091,-0.10674522070175632
mp-5068,DyZrSb,0.145991476,8.186241744,0.0,35.0,83.0,1.2,0.31,91.7,-0.6787280981882404,-0.3685145797402773,-0.11869850473560915
mp-541047,ZrAlPd2,0.133764655,8.143435711,0.0,15.0,147.0,0.68,0.45,43.5,-0.16422482810984648,-0.5426281625583617,-0.46613824027335243
mp-542791,ZrNCl,0.103487223,4.241729539,0.809023333,12.0,25.0,110.07,0.29,30.96,0.3078802771084424,0.0335842651587707,0.536353687342113
mp-567807,TmZrSb,0.141688793,8.510051747,0.0,35.0,78.0,0.78,0.3,91.0,-0.8570902191295641,-0.6436679581810311,-0.16079080145719635
mp-623134,ZrInCu2,0.162779044,8.366624371,0.0,51.0,117.0,0.9,0.31,133.62,-0.29977245348230347,-0.7304364379294355,-1.1868454402294661
mp-638729,Cs2ZrCl6,0.204095561,3.0045161910000004,0.0,4.0,9.0,0.23,0.31,10.48,4.695401670827942,-3.4442450826580133,3.430980384011481
mp-7219,Na2ZrSe3,0.19490014,4.201333807,0.0,22.0,35.0,0.26,0.24,54.56,2.063802360541609,-0.473607710429712,-0.4084158903002125
mp-755225,Li8ZrO6,0.558518273,2.909913051,0.676225667,64.0,94.0,0.52,0.22,156.16,1.956494239800339,3.7473697732354205,-0.6726428186962988
mp-755895,Ba3Zr2O7,0.527304976,5.8601944989999994,0.0,66.0,119.0,0.21,0.27,167.64,4.1135314726036745,4.60218613029073,-4.522848976966816
mp-8042,ZrGeO4,0.585039989,5.811092455,0.0,85.0,202.0,0.35,0.32,224.4,0.5833195819805068,0.6024260448374925,-0.8892384813207783
mp-8219,Zr(CuP)2,0.11128637599999999,5.968639054,0.0,61.0,129.0,0.54,0.3,158.6,-0.6952089576247207,-0.7415292467332878,-0.5571824422139142
mp-8418,ZrCoP,0.12478837,7.13404086,0.0,115.0,193.0,0.11,0.25,287.5,-0.48317415588943524,-0.42662641104940385,-0.14260422084818972
mp-864897,Zr2CuOs,0.125622439,10.20714223,0.0,46.0,165.0,0.97,0.37,126.04,-0.4052367219069438,-0.8510884566965498,-0.9141001071548405
mp-864947,ZrSnRh2,0.121329946,9.827144322999999,0.0,-112.0,172.0,-5.48,0.92,-430.08,-0.2049470178818403,-0.4010953343092585,-0.6024512826105958
mp-865536,YbZrRh2,0.158216355,10.77296683,0.0,38.0,127.0,0.08,0.36,103.36,-1.042436101153211,-0.33918932619118036,-0.05354337350787069
mp-865870,LiZr2Os,0.133947036,8.741677972,0.0,50.0,136.0,0.07,0.34,134.0,-0.24992782898476001,-0.33999750498718134,-0.4845517113334943
mp-865925,LiZrIr2,0.15112151699999998,12.79022692,0.0,49.0,158.0,0.67,0.36,133.28,-0.2807032259899654,-0.2205787922674225,-0.21828938967218886
mp-9289,ZrSnTe,0.18984530800000002,7.535139399,0.0,54.0,82.0,0.25,0.23,132.84,-0.08209382855576972,-0.5510995045678145,-0.43325419382139563
mp-977436,ZrAlRu2,0.101429743,8.467488539,0.0,68.0,202.0,0.08,0.35,183.6,-0.4203903950241328,-0.5601627234783111,-0.2918000643507267
mp-977443,ZrGeRu2,0.111808625,9.713002821,0.0,89.0,213.0,0.05,0.32,234.96,-0.5895362419416653,-0.5981561086591202,-0.32276774981774975
mp-977549,Zr2OsRu,0.109989097,11.07150984,0.0,86.0,193.0,0.04,0.31,225.32,-0.44247264833163585,-0.7843303750324159,-0.618318781313461
mp-990440,Na2ZrO3,0.52591369,3.956541872,0.0,51.0,82.0,0.87,0.24,126.48,2.3418288946225543,0.7254172399184453,-0.9174917208705511
mp-1014244,ZrZnN2,0.15023699599999998,6.050268482999999,0.0,79.0,177.0,0.74,0.31,206.98,-0.056968933696980584,0.7976310857315244,0.6643192325502525
mp-1019544,BaZrO3,0.542774847,5.9833169060000015,0.049922,88.0,143.0,0.06,0.25,220.0,1.4610667720255344,1.5316543855833955,-1.6956566132045519
mp-10244,Zr3(CuSi)4,0.119526021,6.394973035,0.0,83.0,145.0,0.3,0.26,209.16,-1.945429913537149,-1.4629505443806736,-1.5891770482459275
mp-11293,ZrCdCu2,0.19283689,8.333554834,0.0,51.0,115.0,1.05,0.31,133.62,0.008217251530339049,-0.632479690170442,-1.2910720334763044
mp-13542,ZrGeTe4,0.21261420600000008,5.8311298129999996,0.3896716670000001,11.0,13.0,4.55,0.18,25.96,-0.3554585230761176,-1.0105552794728652,-0.45185291625742974
mp-16765,Zr2Te2P,0.18487809800000002,5.957328217000001,0.0,18.0,27.0,6.24,0.22,43.92,-0.36633329230971773,-0.8040868746272827,-0.24057812733417497
mp-19917,ZrSiTe,0.18314969600000008,6.062738942,0.0,29.0,35.0,8.37,0.17,67.86,-0.48198777195293147,-0.5097678690620129,-0.16709077295936525
mp-22522,ZrCuSi,0.11940917599999999,6.4360601410000005,0.0,84.0,147.0,0.2,0.26,211.68,-0.558791639624838,-0.5322756154872706,-0.4637814120485536
mp-27831,Rb2ZrCl6,0.185578147,2.76565662,0.0,5.0,9.0,0.4,0.29,12.9,4.5472584011952,-2.689671982555615,3.1233510909062874
mp-29152,Zr2CoP,0.117918085,6.7288498720000005,0.0,78.0,154.0,0.25,0.28,199.68,-0.5208558851482404,-0.5637679819917781,-0.25427988249122263
mp-3216,Li2ZrN2,0.210051154,4.272989449,0.0,113.0,132.0,0.37,0.17,264.42,0.13982427184504284,1.4882211389655076,0.8408168303049691
mp-3346,HoZrSb,0.129408871,8.29952847,0.0,37.0,75.0,0.93,0.29,95.46,-0.834595715513407,-0.6242967803843379,-0.005777935687169364
mp-3519,ZrSO,0.289018293,4.80990996,0.0,50.0,130.0,0.0,0.33,133.0,0.1582375011048494,-0.10996409474832668,-0.6144079678198145
mp-4156,Li2ZrO3,0.537793501,4.032147501,0.0,59.0,101.0,1.81,0.26,148.68,0.754388921480629,1.0636777998099562,-0.5526831170828915
mp-5137,Zr2SbP,0.098192865,6.490311425,0.0,66.0,113.0,0.84,0.25,165.0,-0.5287922321302495,-0.5568888177407348,-0.16024646789545233
mp-540771,BaZrS3,0.196331275,4.220670552,0.0,33.0,70.0,0.32,0.3,85.8,0.8747178292179072,0.6944206753340139,-2.000790867028727
mp-569344,Zr(CoSi)2,0.11438856800000001,6.473514957000001,0.0,109.0,186.0,0.07,0.26,274.68,-1.1453225644172853,-0.549318100037957,-0.32938887475667117
mp-607475,Zr4In5Co2,0.140680757,7.750873048,0.0,53.0,89.0,0.16,0.25,132.5,-0.6841082181898746,-1.132282739338524,-2.284640029046945
mp-7930,Zr3(Cu2Si)2,0.131675443,6.883905119,0.0,75.0,138.0,0.6,0.27,190.5,-1.2188563079454786,-1.3942700128947447,-1.7120992440853964
mp-864896,Zr2CoTc,0.129421134,8.160734344,0.0,69.0,164.0,0.21,0.31,180.78,-0.3453084901106995,-0.7767848359095106,-0.742467948590747
mp-864921,MgZrIr2,0.13611406199999998,12.44632055,0.0,79.0,178.0,0.38,0.31,206.98,-0.6037394306655205,0.7390473075985184,0.6220976503131316
mp-865868,LiZrRh2,0.147136344,8.088548972,0.0,46.0,138.0,0.07,0.35,124.2,-0.16005006789671333,0.0012105220556222168,-0.3303430994037911
mp-961687,ZrSnPd,0.11564322699999999,7.995515936,0.0,57.0,98.0,0.22,0.26,143.64,-0.06805083919522492,-0.498081888868964,-0.5213325950305171
mp-961693,ZrInAu,0.162319786,9.634347622,0.0,46.0,112.0,0.49,0.32,121.44,-0.22153146067269852,-0.5009550940827356,-0.6923692193185267
mp-961713,ZrSnPt,0.109391807,10.15542847,0.0,87.0,130.0,0.02,0.23,214.02,-0.11675804534094096,-0.568144952884902,-0.46246306962869865
mp-972327,Zr2CoOs,0.12277080000000001,10.34531065,0.0,68.0,144.0,0.07,0.3,176.8,-0.4799563817373843,-0.7502110678037837,-0.6965631196903482
mp-977435,ZrAlRh2,0.115898115,8.407870126,0.0,100.0,201.0,-4.92,0.29,258.0,-0.31816306149318185,-0.33670997352951115,-0.3937266301766598
mp-977462,ZrCdAu2,0.233770692,12.64002032,0.0,25.0,149.0,13.03,0.42,71.0,0.01708963247808516,-0.542430995663551,-1.0264046627680998
mp-977537,ZrCdRh2,0.167608291,9.863861657000001,0.0,58.0,154.0,0.79,0.33,154.28,0.03597273221190715,-0.27551077689337367,-0.8014359476194787
mp-977578,Zr2TcPd,0.130350787,8.744586556,0.0,54.0,156.0,0.04,0.34,144.72,-0.1797419732478079,-0.8021368626781678,-0.7513926981751733
mp-977582,ZrZnRh2,0.141422343,9.475241412,0.0,61.0,174.0,0.63,0.34,163.48,-0.2753391828522842,-0.36274557606224755,-0.4394348368939999
mp-1029660,Ca4ZrN4,0.20362912100000002,3.283018873,0.0,41.0,87.0,0.64,0.3,106.6,-0.10782320625267929,6.62928318018644,6.138847360949546
mp-11583,Zr2SN2,0.138106651,5.411485858,0.0,68.0,159.0,0.12,0.31,178.16,-0.018621694588879176,0.6600298352840386,0.3178197424580402
mp-22036,ZrSbPd,0.126292268,8.815969473,0.0,36.0,128.0,0.47,0.37,98.64,-0.2611187889447314,-0.4991104310696429,-0.3672024055847948
mp-22150,Zr2InCo2,0.146352512,8.00208265,0.0,53.0,132.0,0.25,0.32,139.92,-0.48689350240198714,-0.6658232310862777,-0.8634471269435128
mp-22167,Zr6Ga2Co,0.119587604,6.867478772999999,0.0,50.0,109.0,0.0,0.3,130.0,-0.6203527437046723,-1.1372812572476159,-0.997129047890149
mp-22268,ZrPRu,0.098186941,7.96382365,0.0,108.0,208.0,0.1,0.28,276.48,-0.44569042248368707,-0.46074571827803545,-0.06435988247130377
mp-23052,ZrIN,0.159289695,4.9678711589999995,0.0,15.0,19.0,53.67,0.19,35.7,0.17274718939174855,0.10367255156975405,0.3440976737124305
mp-29135,Zr6CoAs2,0.115038729,7.117220637000001,0.0,67.0,124.0,0.09,0.27,170.18,-0.35721916607411053,-1.2719498036939116,-1.065066438105015
mp-30563,ZrCoSn,0.13038054699999999,8.364350199,0.0,66.0,138.0,0.4,0.29,170.28,-0.23361735605811595,-0.472729862100307,-0.5124078454460901
mp-31438,YZrSb,0.127837124,6.558519163,0.0,41.0,80.0,0.77,0.28,104.96,-0.3475027686298868,-0.16705209151466296,-0.2506203917155055
mp-31451,ZrCoBi,0.151825787,9.832643521,0.0,62.0,117.0,0.3,0.27,157.48,-0.3471818539136989,-0.22875274046770552,-0.6628052552105533
mp-3834,BaZrO3,0.540492356,5.958155707,0.0,92.0,149.0,0.09,0.24,228.16,1.4610667720255344,1.5316543855833955,-1.6956566132045519
mp-4387,SrZrO3,0.52198798,5.252253634,0.0,88.0,146.0,0.11,0.25,220.0,0.9853085578313592,1.1890859495185684,-0.5356286752479164
mp-4571,CaZrO3,0.510173577,4.466539978999999,0.0,85.0,148.0,0.05,0.26,214.2,0.5455918847851676,1.5718844819699358,0.4534394541346398
mp-4820,ZrSiO4,0.542160258,4.479509051,0.0,96.0,203.0,1.02,0.3,249.6,0.46578752911221916,0.6173657047443563,-0.8008320274256604
mp-4878,ZrGeSe,0.152185406,6.867661029,0.0,68.0,102.0,0.35,0.23,167.28,-0.22243670418080289,-0.5211371813406728,-0.19515167459687424
mp-4997,ZrGeS,0.1371199,6.003315142000001,0.0,77.0,119.0,0.14,0.23,189.42,-0.32521084042303,-0.4005401013077479,-0.4665550360617115
mp-568592,ZrNCl,0.10244437199999999,4.198985198,0.0,13.0,24.0,70.8,0.28,33.28,0.3078802771084424,0.0335842651587707,0.536353687342113
mp-5848,ErZrSb,0.128306864,8.406905152,0.0,36.0,72.0,0.88,0.28,92.16,-0.8504379776668356,-0.3943799698953179,-0.23461464866756768
mp-7544,ZrSiRu,0.093547078,7.550997004,0.0,100.0,191.0,0.21,0.28,256.0,-0.5960275660495293,-0.46551753382313654,-0.1680000862071738
mp-7903,Cs2ZrF6,0.32267732,4.127444048,0.0,9.0,21.0,0.4,0.31,23.58,4.865792854453116,-3.615096932091784,3.9988913130527957
mp-8221,ZrAsRu,0.101120005,8.83545515,0.0,84.0,187.0,0.04,0.31,220.08,-0.18203377481401478,-0.5257692621454231,-0.32895248781993497
mp-8335,Ba2ZrO4,0.51955256,5.804495178,0.0,56.0,106.0,0.23,0.27,142.24,2.568446395343676,2.894194962498656,-2.878616676530679
mp-864607,ZrCdPd2,0.181778684,9.548325518,0.0,34.0,136.0,2.31,0.39,94.52,0.18991096559524245,-0.48142896592222445,-0.8738475577161707
mp-864878,ZrAlAu2,0.192158263,11.49569137,0.0,15.0,135.0,14.7,0.45,43.5,-0.3370461612270031,-0.6036301922996886,-0.6186953453252805
mp-864907,MgZrPd2,0.146652171,7.684728477,0.0,35.0,119.0,0.73,0.37,95.9,-0.3291480391889328,0.7549184328927129,0.43763233048483713
mp-864910,MgZrRh2,0.13222625,8.024352151,0.0,67.0,149.0,0.01,0.3,174.2,-0.4830862725722682,0.9608366219215632,0.5100439405815291
mp-864920,MgZrAu2,0.20279029999999998,11.003227699999998,0.0,32.0,117.0,1.55,0.37,87.68,-0.5019693723060898,0.6939164031513858,0.28507522543290825
mp-865434,LuZrRu2,0.128666115,10.77647713,0.0,71.0,157.0,0.44,0.3,184.6,-0.5329545741506839,-0.6418349138756466,-0.1368503845445437
mp-865866,LiZrPt2,0.150806791,12.12196756,0.0,17.0,140.0,5.92,0.44,48.96,-0.10352624680481022,-0.3448337950051046,-0.2850156586968472
mp-865893,LiZr2Tc,0.13865354800000002,6.557078081,0.0,29.0,115.0,0.71,0.38,80.04,-0.11527993735807508,-0.36657127309290805,-0.5304565402338932
mp-9463,ZrGeSb,0.108208838,7.361502566,0.0,73.0,98.0,0.17,0.2,175.2,-0.5239155935689991,-0.4394587222503259,-0.24061746388340724
mp-977550,ZrScOs2,0.117584412,12.4209096,0.0,83.0,191.0,0.05,0.31,217.46,-0.5664085760504041,-0.7879622639794187,-0.6729958971651256
mp-12972,Zr6Sb2Pt,0.11476129199999999,8.182856687000001,0.0,59.0,119.0,0.18,0.29,152.22,-0.6546954505326543,-1.3315817932468965,-0.917283321894717
mp-556536,Na2Zr(CuS2)2,0.188508509,3.866808713,0.0,16.0,45.0,8.43,0.34,42.88,1.6501142911412527,-0.5185122860243117,-2.2234207514832773
mp-865924,LiZrAu2,0.218135429,11.15392461,0.0,11.0,102.0,1.79,0.45,31.9,-0.17893316763053455,-0.26570969671455524,-0.5553118145524119
mp-8891,K2Zr(BO3)2,0.5582707020000001,3.208382073,0.0,37.0,74.0,4.57,0.29,95.46,3.7358904500450834,-0.022294655830407947,1.1380208962088647
mp-9318,KZrCuSe3,0.218962465,4.780797796,0.0,18.0,23.0,4.5,0.19,42.84,1.5654876118456371,-1.6460022963841883,0.5482054493316557
mp-9929,ZrCuSiAs,0.104449215,6.538643607000001,0.0,79.0,137.0,0.11,0.26,199.08,-0.5080846511851591,-0.6268676095525212,-0.5632727157415807
mp-40143,Cs2KZrOF5,0.38951024799999995,3.9628984739999997,0.0,14.0,13.0,0.75,0.09,30.52,6.020703874384838,-3.7911026093313884,4.5533070760826275