mp_id,Formula,IPF,Density,E_above_Hull,G_VRH,K_VRH,Elastic_Anisotropy,poisson_ratio,Y_Modulus,PC 1,PC 2,PC 3
mp-1025571,WS2,0.082573343,4.475734302,0.951298889,2.0,19.0,-4.53,0.46,5.84,0.5284959516445094,-0.30578986453297796,-0.46268328632685857
mp-1028698,WSe2,0.110243255,5.899583047,0.1749375,13.0,18.0,91.25,0.21,31.46,0.7340442241289632,-0.5469840245988279,0.08012343660281657
mp-1029655,Sr3WN3,0.228417368,5.462967484,0.0,30.0,57.0,0.1,0.27,76.2,1.7735657039679527,3.8284493331297775,1.8495922383959775
mp-1113,BW2,0.108368517,16.75971914,0.0,152.0,330.0,0.04,0.3,395.2,0.8618106920459202,-0.18948181187775978,0.31828486939476375
mp-11227,Al12W,0.07939051400000001,3.8578125919999997,0.0,57.0,92.0,0.0,0.24,141.36,-0.4752987724712535,-0.3656647051474712,0.13860407892258167
mp-11282,Be2W,0.114220195,10.61119771,0.0,170.0,218.0,0.01,0.19,404.6,0.39777590165317356,-0.3298261668596454,-0.006916951957067828
mp-11328,P2W,0.073322923,9.119852404,0.0,132.0,188.0,0.12,0.21,319.44,0.018108745188944748,-0.28936311991496977,0.4205387283341075
mp-11696,As3W2,0.08306151,11.06042571,0.0,74.0,134.0,1.26,0.27,187.96,1.1241553978513652,-0.5678916390255603,-0.06637734826486924
mp-1620,Si2W,0.07796509,9.68978012,0.0,189.0,218.0,0.06,0.16,438.48,-0.2825655419427401,-0.29890675100517133,0.21325832086236562
mp-1821,WSe2,0.146822856,7.857112292,0.0,20.0,20.0,-4.74,0.13,45.2,0.7340442241289632,-0.5469840245988279,0.08012343660281657
mp-18773,WO3,0.472899506,6.736530705,0.08762125,86.0,59.0,2.58,0.01,173.72,1.1570888384499254,0.49366202320953684,-0.43405873817756185
mp-19163,SrWO4,0.487201196,6.02577764,0.0,29.0,63.0,0.46,0.3,75.4,1.788710247573893,1.5136341640599715,-0.45699086354705465
mp-19407,MnWO4,0.499603797,6.873201233,0.0,55.0,127.0,0.39,0.31,144.1,1.4091550370389154,0.6468261096779411,-0.755459022698319
mp-19443,WO3,0.467283687,6.656532446,0.0,101.0,197.0,1.93,0.28,258.56,1.1570888384499254,0.49366202320953684,-0.43405873817756185
mp-2157,Co3W,0.16374592300000002,12.92411901,0.0,142.0,279.0,0.14,0.28,363.52,-0.0015653228495828213,-0.48096504262070755,-0.3434805192541367
mp-224,WS2,0.121333614,6.576662628999999,0.227115,20.0,27.0,401.13,0.2,48.0,0.5284959516445094,-0.30578986453297796,-0.46268328632685857
mp-22693,Te2W,0.233957238,8.523376261000001,0.0,13.0,20.0,45.09,0.23,31.98,0.45000619432128164,-0.5541247198552354,-0.04056766791240195
mp-23178,WCl6,0.060568165,2.887145358,0.126281429,0.0,1.0,0.78,0.29,0.0,2.7259415577629897,-1.593145255313298,1.679742842982075
mp-2420,PW,0.08768324400000001,12.10182226,0.0,117.0,222.0,0.42,0.28,299.52,0.23105840441893835,-0.2597946697171064,0.25543742667850255
mp-29481,Rb2WBr6,0.18270163899999997,4.40274788,0.0,4.0,15.0,3.8,0.38,11.04,4.63112768114327,-2.5024516940170765,2.5317606479369354
mp-30337,Al5W,0.08969872,5.700302231,0.0,98.0,124.0,0.03,0.19,233.24,0.06096354859885414,-0.2866589218643379,0.11044777248109867
mp-30744,IrW,0.123637329,20.51773603,0.0,183.0,334.0,0.11,0.27,464.82,0.3237544226073577,-0.34709341663548526,0.02903848726027333
mp-30745,Ir3W,0.126910682,21.33034332,0.0,193.0,351.0,0.08,0.27,490.22,0.08324714052420977,-0.58082781086797,-0.0935567882649741
mp-30866,Rh3W,0.12203762300000001,14.09088559,0.0,132.0,283.0,0.05,0.3,343.2,0.2642268776640881,-0.24814383938340295,-0.2616373528623772
mp-566278,WO3,0.466982805,6.652246333,0.32150875,82.0,194.0,1.07,0.32,216.48,1.1570888384499254,0.49366202320953684,-0.43405873817756185
mp-568827,Be12W,0.111945009,4.4449051289999995,0.0,158.0,144.0,0.09,0.1,347.6,0.1666150916743842,-0.8278259035616565,-0.49318233685689217
mp-569803,B2W,0.088672976,12.27319821,0.0,224.0,321.0,0.02,0.22,546.56,0.22356058267611545,-0.04095852961514745,0.26271273818400354
mp-675,ZrW2,0.114255257,13.52058797,0.0,87.0,215.0,0.06,0.32,229.68,0.9343527032735224,-0.42125722777218116,0.12042090117117625
mp-7832,BW,0.103227515,15.33150244,0.0,196.0,342.0,0.19,0.26,493.92,0.3337843231625235,-0.13559237456719522,0.17652443160345033
mp-862655,Ru3W,0.09547327800000001,13.99637553,0.0,162.0,309.0,0.03,0.28,414.72,0.11088587736766203,-0.5833229643066025,-0.1087475041234772
mp-976082,Mn2GaW,0.115941515,11.64361163,0.585265086,114.0,220.0,0.48,0.28,291.84,0.39189347725064644,-0.4337479292437238,-0.2683904771372372
mp-9813,WS2,0.12097095599999999,6.557005455,0.0,20.0,27.0,294.55,0.21,48.4,0.5284959516445094,-0.30578986453297796,-0.46268328632685857
mp-18803,Na2WO4,0.485145041,4.882345569,0.0,28.0,52.0,0.02,0.27,71.12,3.145230584365088,1.049965454459848,-0.8388539091696906
mp-18875,MgWO4,0.553484371,6.570296868,0.0,70.0,136.0,0.25,0.28,179.2,1.1532503159611547,2.021218159101185,0.2989358743387817
mp-18918,ZnWO4,0.547495426,7.4436353010000005,0.0,54.0,142.0,0.56,0.33,143.64,1.360997405681139,0.6976359611173745,-0.6505429031367473
mp-19048,BaWO4,0.46392248799999997,6.023402682,0.0,24.0,56.0,0.46,0.31,62.88,2.2644684617680686,1.8562026001247982,-1.6170188015036908
mp-19789,Mn(BW)2,0.102469238,13.75827346,0.0,187.0,306.0,0.19,0.25,467.5,0.7659595585481705,-0.1829799613669011,0.2578711791880464
mp-27768,Co(BW)3,0.115452289,14.62245191,0.0,203.0,339.0,0.12,0.25,507.5,1.0208651177903294,-0.13768316698471736,0.487816372254839
mp-29556,Tl2WCl6,0.131700874,5.23619038,0.0,5.0,15.0,0.82,0.36,13.6,4.441492107491966,-2.7086853401278024,2.9604873755602235
mp-30234,Cs2WCl6,0.213508554,3.6987102110000003,0.0,4.0,8.0,0.95,0.31,10.48,5.261109768970145,-3.3609929490262047,3.68441648344583
mp-3503,Li6WN4,0.219086301,4.197507863,0.0,68.0,85.0,0.04,0.18,160.48,1.1300648574984642,4.026440674946103,2.2329814549847518
mp-541753,Cs2WBr6,0.199238628,4.465235394,0.0,3.0,12.0,3.41,0.39,8.34,4.779270950776014,-3.257024794119476,2.839389941042131
mp-555403,K3WF6,0.278498398,3.501656521,0.0,3.0,34.0,-15.76,0.45,8.7,6.874147365251935,-3.7827878218085838,5.513954747813582
mp-568914,K2WCl6,0.171885581,3.134179521,0.0,4.0,12.0,2.4,0.35,10.8,5.377817973672167,-2.9390057333543083,3.8572768268421993
mp-7573,Co(BW)2,0.12032504699999999,14.32375475,0.0,208.0,335.0,0.16,0.24,515.84,0.6030624893933403,-0.17842757462620024,0.2598676278829721
mp-861666,LiRu2W,0.132651951,11.75840689,0.0,85.0,227.0,0.0,0.33,226.1,0.30343069671453815,-0.13899009426136827,0.0250195658564899
mp-862725,ScTc2W,0.12883302300000002,11.07067143,0.0,84.0,223.0,0.26,0.33,223.44,0.268595305345167,-0.7578576665590626,-0.511369455531577
mp-864990,Mn2AlW,0.106315529,10.37140883,0.0,127.0,236.0,0.13,0.27,322.58,0.3961443746162333,-0.4177767488706398,-0.19884553906000374
mp-972810,SiTc2W,0.104094232,11.82085443,0.0,97.0,278.0,0.04,0.34,259.96,0.005916732468191661,-0.7497370934933993,-0.494376305945205
mp-19005,Y6WO12,0.492748525,5.691973536,0.0,65.0,142.0,0.21,0.3,169.0,2.8802796129222896,4.004086981910882,-2.2289330306238258
mp-19260,Li2WO4,0.537380462,5.625991742999999,0.0,26.0,69.0,6.52,0.33,69.16,1.5577906112231619,1.3882260143513587,-0.47404530538203
mp-19387,CdWO4,0.513972321,7.530508482,0.0,41.0,118.0,0.78,0.34,109.88,1.67230932074533,0.7848707602862486,-1.012544013862227
mp-22759,CoBW,0.13121948,13.55539266,0.0,193.0,335.0,0.22,0.26,486.36,0.18525986099635203,-0.21917198226768336,0.03191888351110549
mp-27475,WSCl4,0.059908047,2.8034848880000003,0.9627615620000001,1.0,1.0,3.49,0.27,2.54,2.007541003722759,-1.1766207325554807,0.8734308979874711
mp-30227,Rb2WCl6,0.193183517,3.49174967,0.0,4.0,10.0,0.97,0.31,10.48,5.112966499337401,-2.6064198489238035,3.376787190340633
mp-570568,W2NCl8,0.065990751,3.517731997,0.0,1.0,4.0,-29.31,0.36,2.72,4.063870487267108,-1.5271252469463834,2.785858062186816
mp-862622,BeRu2W,0.09605626,12.19253163,0.0,119.0,270.0,0.0,0.31,311.78,0.198810525130206,-0.5154240230476838,-0.09101283289800202
mp-989524,LaWN3,0.179051883,9.211968837999999,0.0,57.0,170.0,3.82,0.35,153.9,0.46849640598055536,2.088612854137484,1.874194305944926
mp-19420,Sr2MgWO6,0.574045699,6.167197411,0.680335,72.0,127.0,0.05,0.26,181.44,2.4164931342090905,4.061162440802054,0.253071623599796
mp-977545,ZrTc2W,0.12081496800000001,11.85792313,0.0,109.0,198.0,0.44,0.27,276.86,0.3315218060052218,-0.8525383986928093,-0.6675130655079736
mp-18848,Sr2MgWO6,0.57255916,6.151226943999999,0.0,76.0,179.0,0.07,0.31,199.12,2.4164931342090905,4.061162440802054,0.253071623599796
mp-1014265,Zr2N,0.129869305,6.644608572,0.0,88.0,173.0,1.32,0.28,225.28,-0.11012370116937245,0.12359586684873967,0.1597769060392164
mp-1018103,ZrAu2,0.22386169600000005,13.95104668,0.0,36.0,157.0,14.28,0.39,100.08,-0.2604372582169877,-0.5923436518306695,-0.622717674816921
mp-1018104,Zr2Cd,0.15891116,7.235683213,0.0,28.0,78.0,4.53,0.34,75.04,0.11814512694299739,-0.40070726792630756,-0.678462624005663
mp-1018107,ZrTe2,0.21616225600000002,5.981655019,0.0,13.0,14.0,3.76,0.15,29.9,-0.11570190382092073,-0.6373768534870444,-0.2940037673467499
mp-11239,ZrAg,0.196614404,8.085384987000001,0.0,47.0,106.0,1.06,0.31,123.14,-0.1440976905334617,-0.07768920515331183,-0.886212909375761
mp-11263,Zr3Au,0.15453942,9.202326342000001,0.0,52.0,118.0,0.62,0.31,136.24,-0.26643210487274,-0.7271941443756089,-0.6162601479002536
mp-11283,ZrBe5,0.111528715,3.6233934760000004,0.0,111.0,126.0,0.48,0.16,257.52,-0.23728043948266533,-0.5624782215020582,-0.40623266686136245
mp-11313,ZrCd3,0.21752775,8.172108957,0.0,28.0,77.0,3.35,0.34,75.04,0.7108806375919485,-0.1637403846496961,-1.3741609382649869
mp-11345,ZrP,0.089397749,5.396878206,0.0,82.0,134.0,0.55,0.25,205.0,-0.334649693723264,-0.3430468033489156,0.0020013272441544226
mp-11541,ZrOs,0.11062702099999999,13.11886224,0.0,99.0,209.0,0.05,0.3,257.4,-0.29375019031240746,-0.5294898891609218,-0.44028190995496924
mp-1186,ZrS2,0.107355841,3.30746918,0.0,13.0,18.0,62.45,0.21,31.46,-0.03721214649769288,-0.38904199816478724,-0.716119385761206
mp-12109,ZrRe2,0.10725567,14.50077998,0.0,66.0,251.0,0.18,0.38,182.16,-0.2866617727257066,-0.2687296253342736,-0.6190710893342283
mp-12752,Zr4Al3,0.103995635,5.301738955,0.0,77.0,108.0,0.06,0.21,186.34,-0.46457193129973345,-0.7587626873852309,-0.4860599708656315
mp-1278,Zr2Si,0.102294421,5.972090645,0.0,87.0,126.0,0.12,0.22,212.28,-0.5226685665479117,-0.4849601898363901,-0.21331453813475076
mp-13495,ZrPd,0.13431611,8.472656817999999,0.0,33.0,134.0,4.57,0.39,91.74,-0.10465797979655113,-0.42240998762019755,-0.3166302720882217
mp-1352,ZrN,0.150791585,7.0989781789999995,0.0,142.0,247.0,0.39,0.26,357.84,-0.07244197191056674,0.26073743779111347,0.2714525676822503
mp-1401,ZrZn2,0.164192354,7.229957535,0.0,59.0,102.0,0.01,0.26,148.68,-0.18927008323150632,-0.3881226391545632,-0.24647172886284957
mp-14024,Zr3O,0.224376644,6.592175224,0.41953875,56.0,132.0,0.58,0.32,147.84,0.04063009858944951,-0.34646541412620674,-0.5612495854310049
mp-1438,ZrIr3,0.130751108,17.49133316,0.0,152.0,266.0,0.53,0.26,383.04,-0.48246095761799235,-0.6640799444997793,-0.3469928876993212
mp-1471,Zr3Al,0.109935484,5.913584664,0.0,55.0,101.0,0.62,0.27,139.7,-0.2736723960208973,-0.5990480355048191,-0.38242896820587835
mp-1472,ZrB2,0.104370549,6.033105132999999,0.0,226.0,238.0,0.15,0.14,515.28,-0.34214751546608646,-0.1242106632469567,0.009276638749656039
mp-1482,Zr2Al3,0.097756566,4.650765426,0.0,69.0,108.0,0.16,0.24,171.12,-0.3892084727821225,-0.48447954550048317,-0.26270864757956336
mp-1515,ZrSi2,0.078878589,4.846510483,0.0,95.0,125.0,0.29,0.2,228.0,-0.8482736400849425,-0.3821588846369806,-0.040177778571981536
mp-1523,ZrP2,0.08008186,5.019215526,0.0,80.0,127.0,0.31,0.24,198.4,-0.5475993529532571,-0.37261525354677916,0.1671026288997603
mp-1539,ZrTe,0.24059475800000002,7.455420285,0.0,56.0,93.0,1.34,0.25,140.0,-0.11870096915709567,-0.4754276033190485,-0.2285518708790999
mp-1630,Zr3Hg,0.182118022,8.921389892999999,0.0,58.0,104.0,0.36,0.27,147.32,0.3746192394313595,-1.1180898714300171,0.0115994818142139
mp-1682,ZrAs,0.093249555,6.6502005120000005,0.0,65.0,118.0,0.92,0.27,165.1,-0.07099304605359165,-0.4080703472163032,-0.26259127810447713
mp-1683,ZrSe3,0.150400728,5.205999281,0.0,9.0,16.0,31.05,0.26,22.68,0.31335420622677757,-0.7886150607704295,-0.17841900704157035
mp-1793,Zr3Te,0.184418268,7.205173782999999,0.0,39.0,106.0,0.26,0.33,103.74,-0.19406442767470555,-0.7497107452037961,-0.45190319416516683
mp-193,Zr2Cu,0.130303607,6.968518037000001,0.0,47.0,109.0,0.55,0.31,123.14,-0.23318656608780775,-0.6350769206866804,-0.6369181716113224
mp-20695,Zr3In,0.12772096800000002,7.18207305,0.0,51.0,97.0,0.78,0.28,130.56,-0.22752630732845106,-0.6358055866276748,-0.6859116924018601
mp-2076,ZrSe2,0.13577053,4.93521894,0.0,12.0,18.0,24.97,0.23,29.52,0.16833612598676123,-0.6302361582306374,-0.17331266283153074
mp-20800,ZrIn2,0.141419248,7.830351151,0.0,44.0,83.0,0.17,0.27,111.76,-0.18262566312840894,-0.40956653633480194,-0.7620207638201324
mp-2089,ZrTe3,0.24384522600000005,6.430112617000001,0.0,10.0,21.0,10.95,0.29,25.8,-0.1127028384847445,-0.799326103655041,-0.35945566381439725
mp-2116,ZrMn2,0.11364645,7.670875936,0.0,49.0,180.0,0.08,0.38,135.24,-0.09295482051595319,-0.48974234203343003,-0.4563039679859914
mp-214,ZrRu,0.10954887599999999,9.02937681,0.0,81.0,183.0,0.34,0.31,212.22,-0.23274076325369406,-0.43117726808017215,-0.22946118412690839
mp-2221,Zr2Ag,0.164930322,7.428326672000001,0.0,40.0,101.0,1.47,0.32,105.6,-0.18177941979226667,-0.21483077609568582,-0.9978885710187945
mp-22447,Zr3P,0.109573454,6.3787933489999995,0.0,64.0,125.0,0.03,0.28,163.84,-0.4100131522408746,-0.6173299452336639,-0.22134999604191208
mp-2283,ZrCo,0.140027452,7.649629437000001,0.0,44.0,131.0,0.03,0.35,118.8,-0.2702244966594421,-0.3970579608515404,-0.30770552250379535
mp-22871,ZrCl3,0.067377298,2.562224329,0.0,3.0,6.0,44.09,0.28,7.68,1.0192667125637564,-0.9949378710480793,0.631603384568137
mp-229,ZrRh3,0.125301204,10.58653912,0.0,113.0,211.0,0.36,0.27,287.02,-0.301481220478114,-0.3313959730152121,-0.515073452296725
mp-23162,ZrCl2,0.095100627,3.8559743760000003,0.0,12.0,18.0,418.75,0.24,29.76,0.6389444635447474,-0.7677846984157372,0.36670226490827423
mp-23247,ZrBr3,0.07393320099999999,3.595098728,0.0,4.0,5.0,15.07,0.2,9.6,0.7783473034666909,-0.9429537935947155,0.20909011336628802
mp-23282,ZrI3,0.156001172,4.27336416,0.64732,3.0,3.0,12.08,0.17,7.02,0.6138674494136773,-0.7846730118151309,0.054835343679092395
mp-2348,Zr2Au,0.162481634,9.786632112000001,0.0,45.0,119.0,0.98,0.33,119.7,-0.22875037561393458,-0.5900525734332349,-0.5045844862572196
mp-24286,ZrH2,0.09539525199999999,5.5436218020000005,0.0,29.0,130.0,2.13,0.4,81.2,-0.27344146951987974,0.7794320098208535,0.8073550778359091
mp-2510,ZrHg,0.248150978,11.18802717,0.0,24.0,102.0,13.72,0.39,66.72,0.4499826979489703,-0.8438067295452694,0.23495080510028166
mp-266,Zr2Pd,0.128676727,7.845685146,0.0,49.0,123.0,0.56,0.33,130.34,-0.14233970905535642,-0.5595515585625717,-0.42830593373125514
mp-27440,ZrCl,0.09138034800000001,4.131904369,0.0,7.0,19.0,67.65,0.34,18.76,0.2586222145257386,-0.5406315257833948,0.10180114524841202
mp-27606,ZrAs2,0.086773505,6.847379373,0.0,71.0,110.0,0.15,0.24,176.08,-0.020286057613912566,-0.5026623412815541,-0.3620825817975034
mp-2772,ZrAl2,0.09827509,4.520876076,0.0,87.0,113.0,0.03,0.19,207.06,-0.27491784051330187,-0.33605143408909044,-0.15505531542816975
mp-2858,ZrO2,0.52810993,5.563611227000001,0.0,85.0,183.0,0.45,0.3,221.0,0.353687148707392,0.16911380866813427,-0.5126965498784226
mp-30619,Zr3Co,0.123862557,6.915075582,0.0,34.0,104.0,0.17,0.35,91.8,-0.3455879551770528,-0.6713411027362884,-0.5310568457898628
mp-30682,ZrGa,0.11552968300000001,6.856706466,0.0,73.0,114.0,0.66,0.24,181.04,-0.20255983486887266,-0.340736073993155,-0.22862258299704347
mp-30683,ZrGa2,0.11672465800000001,7.049949998,0.0,64.0,100.0,0.11,0.24,158.72,-0.28341963524447406,-0.3679937948352576,-0.294145191582636
mp-30684,Zr3Ga2,0.115719031,6.802046094,0.0,67.0,112.0,0.35,0.25,167.5,-0.3587830937620847,-0.6422769367200055,-0.517496514868704
mp-30686,Zr2Ga3,0.11842264,7.100975172,0.0,67.0,111.0,0.08,0.25,167.5,-0.4019611648788814,-0.5323930866197342,-0.47134346181126274
mp-30842,ZrPd3,0.15547813300000002,10.30918215,0.0,79.0,169.0,0.09,0.3,205.4,-0.07057387040311087,-0.6402732565584878,-0.6236908674417639
mp-30933,ZrBi,0.142425791,9.71464699,0.0,46.0,84.0,0.82,0.27,116.84,-0.19865739174752806,-0.14517313276721708,-0.5181997071182093
mp-31379,Zr2Sb,0.11273698900000001,7.373274717,0.0,34.0,106.0,1.78,0.36,92.48,-0.3158425729002564,-0.5273203675428716,-0.32534776955105765
mp-350,Zr5Te4,0.2162695,7.002343322000001,0.0,36.0,67.0,0.41,0.27,91.44,-0.26043069018379106,-1.5098416375925332,-0.8716102068541811
mp-395,ZrAl3,0.09331559800000001,4.08608236,0.0,83.0,103.0,0.06,0.18,195.88,-0.35152674352331714,-0.34733797455810933,-0.15103298593652958
mp-504594,ZrBr,0.10583147300000001,5.425263687999999,0.0,6.0,19.0,3813.07,0.36,16.32,0.1783157448267165,-0.5233034999656068,-0.0390366118188707
mp-543001,Zr5Sn4,0.11270655800000001,7.6077742760000024,0.0,62.0,104.0,0.03,0.25,155.0,-0.12599838912318884,-1.164732241915613,-1.4286119127527674
mp-568992,ZrIr,0.12148884199999999,12.59589936,0.0,65.0,187.0,0.47,0.34,174.2,-0.2419536755348447,-0.43034555026729443,-0.22439761217407428
mp-569671,ZrSb,0.10974159800000001,7.671287401,0.0,58.0,104.0,0.23,0.26,146.16,-0.2781608436414511,-0.39017879660049776,-0.21367210790802374
mp-569833,Zr2Ga,0.11619328400000001,6.78835122,0.0,47.0,107.0,0.79,0.31,123.14,-0.24024156412767797,-0.4778776449355288,-0.34029824464007735
mp-570276,ZrZn,0.147455995,6.949384276,0.0,47.0,108.0,1.39,0.31,123.14,-0.1554850588623886,-0.35080049615280773,-0.20478585163714996
mp-570506,ZrI2,0.18657161600000002,5.355360291,0.0,8.0,9.0,98.54,0.17,18.72,0.3686782881113603,-0.6276081255937714,-0.017809762351089577
mp-570578,ZrIn3,0.142602324,7.874312177,0.0,48.0,72.0,0.57,0.23,118.08,-0.21308847744597784,-0.4576106279266762,-1.0614811585244737
mp-570684,ZrOs2,0.101812076,15.28262659,0.0,94.0,265.0,0.15,0.34,251.92,-0.4658003461315437,-0.7455014251707913,-0.717463845498488
mp-571279,ZrI2,0.187784498,5.390174918,0.11590166699999999,8.0,11.0,114.67,0.22,19.52,0.3686782881113603,-0.6276081255937714,-0.017809762351089577
mp-571664,Zr2Rh,0.11648151400000001,7.817082939,0.0,9.0,126.0,13.34,0.47,26.46,-0.21930882574702396,-0.45659246404814613,-0.392100128682909
mp-605,ZrTe5,0.215718288,5.444927829,0.0,6.0,11.0,-31.17,0.29,15.48,-0.10670470781239401,-1.123224603991034,-0.4903594567496953
mp-628,Zr2Co,0.129319477,7.1707708960000005,0.0,20.0,107.0,2.17,0.41,56.4,-0.3079062259182479,-0.5341995317939139,-0.4193811841468295
mp-669917,ZrRh,0.118681471,8.702258123,0.0,48.0,156.0,0.3,0.36,130.56,-0.1816270964882186,-0.31945089310577224,-0.2804244670398756
mp-697179,ZrH,0.100850804,5.797300798999999,0.24739250000000002,24.0,114.0,13.02,0.4,67.2,-0.19757075200657526,0.23297682833490044,0.32212755171222895
mp-755328,ZrSn2,0.10725526199999999,7.851905783999999,0.0,55.0,87.0,0.58,0.24,136.4,-0.04848575329061882,-0.464822155648585,-0.5725046202960413
mp-7859,ZrS,0.15195482800000001,5.636888722999999,0.0,44.0,119.0,3.24,0.34,117.92,-0.079456090495482,-0.3512601756579198,-0.4396096800863282
mp-864889,ZrZn3,0.17042457,7.2451142210000015,0.0,39.0,100.0,0.42,0.33,103.74,-0.22305510760062408,-0.4254447821563187,-0.28815760608854896
mp-893,ZrSi,0.09332632699999999,5.5626509,0.0,93.0,141.0,0.36,0.23,228.78,-0.48498683728910635,-0.3478186188940165,-0.10163887649171609
mp-929,ZrCo2,0.15680771699999999,8.422444008,0.0,76.0,164.0,0.03,0.3,197.6,-0.41874895882561364,-0.48063756855202866,-0.45231107059614006
mp-972228,Zr3As2,0.101367624,6.85368351,0.0,61.0,126.0,0.48,0.29,157.38,-0.09564951613152398,-0.7769454831663017,-0.5854339050835723
mp-977585,Zr3Tl,0.19763284,8.763011599,0.0,60.0,121.0,0.53,0.29,154.8,0.6607117818536067,-1.1455315374430526,0.2539209685915552
mp-979,ZrSb2,0.09955384699999999,7.423378603,0.0,50.0,81.0,0.11,0.24,124.0,-0.434621652789631,-0.4668792400499434,-0.2642442414045967
mp-9921,ZrS3,0.121847515,3.3773766739999997,0.0,11.0,21.0,32.12,0.27,27.94,0.00503179750009614,-0.42682382067165436,-0.9926290914360837
mp-10200,ZrBeSi,0.094995334,4.8377254810000005,0.0,116.0,138.0,0.11,0.17,271.44,-0.5081029182869852,-0.39761859256421755,-0.1502654149816985