mp_id,Formula,IPF,Density,E_above_Hull,G_VRH,K_VRH,Elastic_Anisotropy,poisson_ratio,Y_Modulus
mp-5999,Sm2Ti2S2O5,0.398389192,5.233540368,0.0,58,134,0.77,0.31,151.96
mp-6328,Na2Ti2Sb2O,0.21702539999999998,4.601877729,0.0,18,52,-2.81,0.34,48.24
mp-998980,TiAlFeCo,0.17075584100000002,6.423142027000001,0.0,127,175,0.01,0.21,307.34
mp-560767,KNaTiO3,0.5512551760000001,2.952355849,0.0,26,56,4.12,0.3,67.6
mp-6178,Cs2KTiF6,0.382792124,3.91516332,0.0,-13,17,0.0,1.01,-52.26