mp_id,Formula,IPF,Density,E_above_Hull,G_VRH,K_VRH,Elastic_Anisotropy,poisson_ratio,Y_Modulus
mp-1013525,VS2,0.12149499400000001,3.023685295,0.0,14,22,309.33,0.24,34.72
mp-1017531,VPt,0.144718674,14.233140900000002,0.26666,99,238,1.0,0.32,261.36
mp-10711,VSi2,0.085788171,4.640836074,0.0,147,174,0.05,0.17,343.98
mp-1114,VP,0.09944633800000001,5.074561577,0.0,112,171,1.83,0.23,275.52
mp-11190,VSi2,0.085773491,4.640041908,0.003162222,147,175,0.05,0.17,343.98
mp-11281,Be2V,0.12680760300000002,3.936240073,0.0,138,160,0.01,0.17,322.92
mp-11549,VPd2,0.161445915,10.03663375,0.0,76,190,1.23,0.32,200.64
mp-11578,VZn3,0.187199905,7.294935773,0.0,65,113,0.67,0.26,163.8
mp-11687,VTe2,0.262701271,6.646573407000001,0.0,17,26,4.26,0.23,41.82
mp-12108,VPt2,0.143121948,16.53793395,0.0,114,246,0.72,0.3,296.4
mp-1221,V3Ge,0.14443557699999998,6.916313017,0.0,54,184,0.03,0.37,147.96
mp-1387,AlV3,0.12934411699999998,5.367846607,0.0,10,159,16.75,0.47,29.4
mp-1395,VRu,0.11600882400000001,9.212888715,0.0,76,252,0.43,0.36,206.72
mp-1491,VB2,0.107947846,5.108570608,0.0,241,286,0.12,0.17,563.94
mp-1555,V3Sb,0.138139055,7.5874114089999996,0.0,79,178,0.22,0.31,206.98
mp-1585,V3Co,0.155066426,6.985026878999999,0.0,110,211,0.31,0.28,281.6
mp-1664,V3Pd,0.151151496,7.705176343,0.0,74,197,0.48,0.33,196.84
mp-19094,VO2,0.604667275,4.446943564,0.0,119,233,0.98,0.28,304.64
mp-19940,VAs,0.103207232,6.798085487000001,0.0,86,140,0.72,0.25,215.0
mp-2006,V3Ir,0.141879409,10.44657064,0.0,122,237,0.23,0.28,312.32
mp-20541,V2P,0.121004534,5.760240303,0.0,102,207,0.29,0.29,263.16
mp-20887,VSn2,0.10968829699999999,7.770844047000001,0.0,52,98,0.12,0.27,132.08
mp-2091,V3B2,0.130849038,5.846064618,0.0,199,256,0.06,0.19,473.62
mp-21342,V3Sn,0.135652911,7.368095847999999,0.0,22,163,0.65,0.44,63.36
mp-2211,V3Pt,0.14495244300000001,10.34946525,0.0,94,218,0.2,0.31,246.28
mp-22568,V3Ga,0.140975111,6.726541559,0.0,38,168,1.6,0.4,106.4
mp-22700,V3Se4,0.18442926899999998,6.149351277,0.0,54,80,0.25,0.22,131.76
mp-22877,VCl2,0.084409421,2.873112941,0.0,7,10,82.06,0.23,17.22
mp-24728,VH2,0.105170402,4.697635445,0.0,91,175,0.01,0.28,232.96
mp-2540,VTc,0.132733611,8.926404379,0.0,125,254,0.35,0.29,322.5
mp-2554,Al3V,0.098946257,3.714657219,0.0,100,120,0.25,0.17,234.0
mp-2567,V3Si,0.12628906199999998,5.778142097000001,0.0,74,196,0.11,0.33,196.84
mp-2678,VPt,0.144982145,14.25905335,0.0,141,243,0.75,0.26,355.32
mp-2705,VPt3,0.141736843,17.56594294,0.0,111,241,0.59,0.3,288.6
mp-292,V3As,0.133890511,7.121142889,0.0,109,194,0.11,0.26,274.68
mp-30883,V4Zn5,0.175216622,6.973256357,0.0,56,125,1.04,0.31,146.72
mp-316,MnV,0.13101938300000002,7.406261672,0.0,122,243,0.64,0.28,312.32
mp-554799,VF4,0.10982414300000001,2.952730213,0.0,14,14,9.22,0.12,31.36
mp-559931,VF3,0.114955001,3.23346325,0.0,31,24,4.4,0.06,65.72
mp-568671,V5Si3,0.112986445,5.379232202000001,0.0,120,194,0.17,0.24,297.6
mp-569250,VIr,0.138307172,14.52758946,0.0,116,273,0.37,0.31,303.92
mp-569270,V3B4,0.117695793,5.426880907999999,0.0,232,278,0.1,0.17,542.88
mp-571438,Be12V,0.113951577,2.448925809,0.0,144,130,0.08,0.1,316.8
mp-642644,V2H,0.136261411,5.912611007000001,0.0,52,191,3.61,0.38,143.52
mp-642659,V2H,0.13564980199999999,5.886072307999999,0.35284833299999996,54,192,2.51,0.37,147.96
mp-839,V3Au,0.189826737,9.989346771000001,0.0,73,186,0.9,0.33,194.18
mp-865382,V3Ru,0.132628023,7.857833612,0.0,92,225,0.43,0.32,242.88
mp-865385,V3Re,0.13541177599999998,10.27218619,0.0,70,236,0.3,0.36,190.4
mp-865473,VBr3,0.073660614,3.352169715,0.0,3,6,60.59,0.28,7.68
mp-865493,VI3,0.15408554800000002,3.9568155610000004,0.0,3,6,38.06,0.3,7.8
mp-865496,VIr3,0.134717833,18.48599192,0.0,186,320,0.13,0.26,468.72
mp-866121,V3Os,0.132940996,10.5429207,0.0,107,246,0.21,0.31,280.34
mp-866134,VFe3,0.208101725,7.739814842,0.0,90,193,0.55,0.3,234.0
mp-866161,VRh3,0.129505636,10.79492765,0.0,127,251,0.19,0.28,325.12
mp-873,VPd3,0.162127196,10.39870391,0.0,76,178,1.29,0.31,199.12
mp-9208,V2B3,0.115443937,5.360224182,0.0,237,280,0.09,0.17,554.58
mp-972071,V3Mo,0.140188767,7.37133493,0.0,40,189,1.72,0.4,112.0
mp-9923,VP2,0.081745093,4.557132171,0.0,124,152,0.25,0.18,292.64
mp-9948,V5Te4,0.24661137800000002,6.79774393,0.0,30,50,-4.73,0.25,75.0
mp-9973,VB,0.12398012,5.631694171,0.0,232,273,0.12,0.17,542.88
mp-10057,VCoB3,0.120665384,6.022293025,0.0,205,289,0.07,0.21,496.1
mp-1029338,LiV2N3,0.164541978,4.067270399,0.0,70,148,2.63,0.29,180.6
mp-11436,Er(VGa2)2,0.13916848699999998,7.9804201070000005,0.0,73,127,0.41,0.26,183.96
mp-1578,V3Rh,0.139621603,7.7622558260000005,0.0,105,217,0.32,0.29,270.9
mp-18835,VPO4,0.533946514,3.575563662,0.0,66,106,0.41,0.24,163.68
mp-18937,V2O3,0.542471084,4.643588544,0.0,80,202,0.07,0.32,211.2
mp-19133,YVO4,0.48331293299999994,4.06988181,0.0,47,125,2.0,0.33,125.02
mp-19142,Mn2V2O7,0.442776934,3.6692354330000003,0.0,32,96,0.72,0.35,86.4
mp-22977,CsVCl3,0.22214564399999998,3.266698312,0.0,5,14,6.81,0.34,13.4
mp-23038,CsVBr3,0.208275125,4.132924817,0.0,5,11,4.83,0.31,13.1
mp-3762,VCu3S4,0.12839757300000001,3.881407528,0.0,25,39,0.47,0.23,61.5
mp-5778,AlVFe2,0.181722297,6.773327621,0.0,137,218,0.0,0.24,339.76
mp-694,VSe2,0.15670427,5.086001394,0.0,12,16,44.27,0.2,28.8
mp-864984,MnV3,0.13997001,6.851730005,0.0,54,209,0.95,0.38,149.04
mp-865506,VSiOs2,0.09678018,14.24989947,0.0,126,278,0.0,0.3,327.6
mp-865586,VGaRu2,0.113769325,9.793417723,0.0,112,239,0.0,0.3,291.2
mp-867275,BeVOs2,0.106376643,14.45293249,0.0,112,280,0.2,0.32,295.68
mp-10311,ZrVGe,0.12744915,6.9453966639999996,0.0,72,146,2.65,0.29,185.76
mp-17892,Ca2VN3,0.204160073,3.349349754,0.0,50,94,0.58,0.28,128.0
mp-18740,V2Cd2O7,0.448394236,4.44774823,0.0,26,85,0.52,0.36,70.72
mp-19219,Li3VO4,0.502261092,2.536133817,0.0,33,63,0.03,0.28,84.48
mp-19391,NaVO2,0.571843353,3.981260237,0.0,50,114,0.68,0.31,131.0
mp-5513,Tl3VS4,0.190769386,5.821252349,0.0,7,25,4.14,0.38,19.32
mp-570099,RbVBr3,0.184978805,3.881267859,0.0,2,14,-17.23,0.44,5.76
mp-760375,Li3VS4,0.10674969,1.5725145090000001,0.0,7,13,2.4,0.28,17.92
mp-862700,AlVOs2,0.105975747,13.88221108,0.0,140,273,0.01,0.28,358.4
mp-865462,MnV2Os,0.122840304,11.138071400000001,0.0,115,265,0.01,0.31,301.3
mp-865585,VGeRu2,0.11342560199999999,9.737062542,0.0,100,239,0.01,0.32,264.0
mp-865914,TiVTc2,0.1384413,8.499065353999999,0.0,94,233,0.3,0.32,248.16
mp-865916,TiVRe2,0.129954165,13.40356358,0.0,115,255,0.08,0.3,299.0
mp-866288,BeVCo2,0.159134636,7.088483902,0.0,57,193,5.6,0.37,156.18
mp-867137,ScVRu2,0.122109905,8.287841554,0.0,89,195,0.46,0.3,231.4
mp-867927,LiVIr2,0.168044147,14.06882499,0.0,110,223,0.03,0.29,283.8
mp-1029293,CsVN2,0.38962557700000006,4.742624018,0.0,43,104,0.57,0.32,113.52
mp-1029711,NaVN2,0.176068977,2.811362153,0.0,16,45,-1.0,0.34,42.88
mp-1029932,LiVN2,0.154013694,3.0865543110000004,0.0,46,80,0.3,0.26,115.92
mp-18946,VBO3,0.582616123,3.8758685280000003,0.0,89,182,0.4,0.29,229.62
mp-19340,LiVO2,0.575773267,3.9454667810000004,0.0,62,120,1.13,0.28,158.72
mp-4595,VFe2Si,0.175601672,7.112631277,0.0,44,246,22.73,0.42,124.96
mp-5541,ZrVSi,0.10722313800000001,5.727370857,0.0,60,156,12.15,0.33,159.6
mp-557686,ZrVF6,0.09403148900000001,2.9760449060000003,0.0,32,72,6.26,0.31,83.84
mp-777667,LiV2O5,0.496472384,3.184212175,0.0,36,74,1.53,0.29,92.88
mp-865471,VGaTc2,0.127775565,9.299074592,0.0,74,229,1.51,0.35,199.8
mp-865472,VSiTc2,0.11233283,8.485054245,0.0,102,257,0.14,0.32,269.28
mp-865482,VTc2Ge,0.130221105,9.467982401,0.0,90,239,0.39,0.33,239.4
mp-865484,V2CrRe,0.16794362100000002,10.61855263,0.0,112,251,0.28,0.31,293.44
mp-865490,V2CrFe,0.21125710600000003,7.348434424,0.0,107,232,0.68,0.3,278.2
mp-865494,V2CrRu,0.165817662,8.137760168,0.0,106,243,0.48,0.31,277.72
mp-865499,V2TcOs,0.125260222,11.72046033,0.0,129,278,0.01,0.3,335.4
mp-865501,V2TcRu,0.12469237300000001,9.088844927,0.0,112,255,0.05,0.31,293.44
mp-865554,Mn2VGe,0.128598881,8.087681198,0.0,105,224,0.33,0.3,273.0
mp-866001,AlVRu2,0.10467149199999999,8.575394436,0.0,123,235,0.04,0.28,314.88
mp-867874,BeVRu2,0.10572269,8.766714852,0.0,86,238,0.02,0.34,230.48
mp-8689,V4GeSe8,0.16602556400000001,5.606234804,0.0,36,55,0.1,0.23,88.56
mp-9029,Ca3VN3,0.21003985,3.1337015360000002,0.0,50,87,0.04,0.26,126.0
mp-1025165,Zr(VGa2)2,0.127229998,7.144804649,0.0,86,127,0.37,0.22,209.84
mp-21235,Mn2VGa,0.12329417599999999,7.74963821,0.0,83,187,1.15,0.31,217.46
mp-23319,RbVCl3,0.19617351100000002,2.9189442000000003,0.0,2,16,-16.78,0.44,5.76
mp-557257,KVF3,0.27946016,3.23647702,0.0,34,68,1.28,0.29,87.72
mp-567636,VFeSb,0.143462949,7.823725291000001,0.0,62,160,0.49,0.33,164.92
mp-864953,MnV2Cr,0.176509897,7.1516151,0.0,99,231,0.69,0.31,259.38
mp-865026,Mn2VSi,0.107559195,6.869623949,0.0,128,239,0.12,0.27,325.12
mp-865465,VCo2Ge,0.159604834,8.331148302999999,0.0,74,200,1.78,0.34,198.32
mp-865487,VZnRh2,0.149059205,9.621992605,0.0,27,201,89.62,0.44,77.76
mp-865495,V2CrTc,0.173557358,7.954744599,0.0,101,237,0.38,0.31,264.62
mp-865678,TiMn2V,0.13678888,6.930633199,0.0,82,192,0.9,0.31,214.84
mp-867304,BeVFe2,0.192000322,6.82392795,0.0,110,222,0.16,0.29,283.8
mp-972205,V2MoOs,0.126971193,11.42039643,0.0,124,241,0.25,0.28,317.44
mp-981365,V2ReRu,0.120207397,11.65954312,0.0,124,250,0.0,0.29,319.92
mp-1029262,VZn2N3,0.151950466,5.2184762000000005,0.0,61,152,0.07,0.32,161.04
mp-1029312,RbVN2,0.327745649,3.853054367,0.0,36,55,0.51,0.23,88.56
mp-1029368,Mg2VN3,0.141203198,3.1797164860000002,0.0,54,128,0.78,0.31,141.48
mp-10895,Mn2AlV,0.112588787,6.337605085,0.0,98,185,0.41,0.27,248.92
mp-19083,NaVO3,0.447507869,2.6930514339999996,0.0,18,34,1.13,0.27,45.72
mp-19247,ScVO4,0.528266875,3.6536953810000004,0.0,30,148,6.77,0.41,84.6
mp-21371,VCoSi,0.12522798,6.3353830570000005,0.0,112,209,0.34,0.27,284.48
mp-21855,VCu3Se4,0.145952126,5.130520025,0.0,21,36,0.21,0.26,52.92
mp-21883,VGaFe2,0.19263138,8.260081042000001,0.0,122,225,0.03,0.27,309.88
mp-22302,ZrVP,0.11517167699999999,6.212497956,0.0,107,177,0.38,0.25,267.5
mp-22790,VGaCo2,0.159634188,8.311592089,0.0,84,198,1.18,0.31,220.08
mp-22991,CsVI3,0.25455949,4.523940582,0.0,3,11,8.87,0.36,8.16
mp-4474,V4GaS8,0.141362231,3.822198696,0.0,47,74,0.1,0.24,116.56
mp-4604,Li7VN4,0.24849608199999998,2.331248383,0.0,72,83,0.43,0.16,167.04
mp-4955,AlVCo2,0.148000961,6.818543267000001,0.0,98,192,0.52,0.28,250.88
mp-556424,RbVF3,0.326852176,4.111199856,0.0,35,65,0.53,0.27,88.9
mp-865486,VZnRu2,0.132607584,9.682977916,0.0,81,228,0.71,0.34,217.08
mp-865497,V2ReOs,0.120844807,14.26320827,0.0,144,291,0.0,0.29,371.52
mp-865507,VSiRu2,0.095844364,8.864955266,0.0,114,253,0.03,0.3,296.4
mp-867829,LiVRh2,0.162972305,8.408842757,0.0,82,179,0.01,0.3,213.2
mp-1025365,Sc(VGa2)2,0.128840487,6.416055055,0.0,76,118,0.5,0.23,186.96
mp-1025549,Tl3VSe4,0.19807542600000003,6.559809699,0.0,42,149,0.75,0.37,115.08
mp-11193,VAuS2,0.187205299,7.572687804,0.0,52,106,1.46,0.29,134.16
mp-19365,Ba3V2O8,0.518621058,4.91171829,0.0,29,69,0.3,0.31,75.98
mp-865485,V2CrOs,0.165444345,10.87437114,0.0,125,265,0.23,0.3,325.0
mp-557533,Cs2TlVF6,0.337592978,5.060118392,0.0,14,79,0.37,0.42,39.76
mp-560671,Rb2NaVF6,0.34601311700000004,3.706076406,0.0,23,52,0.05,0.31,60.26